# Probe 0 (0.00909091 0.05 0.02)
# Probe 1 (0.01818182 0.05 0.02)
# Probe 2 (0.02727273 0.05 0.02)
# Probe 3 (0.03636364 0.05 0.02)
# Probe 4 (0.04545455 0.05 0.02)
# Probe 5 (0.05454545 0.05 0.02)
# Probe 6 (0.06363636 0.05 0.02)
# Probe 7 (0.07272727 0.05 0.02)
# Probe 8 (0.08181818 0.05 0.02)
# Probe 9 (0.09090909 0.05 0.02)
#             Probe                   0                   1                   2                   3                   4                   5                   6                   7                   8                   9
#              Time
   0.00945854825163     0.0661499302951     0.0662940312528     0.0665063994301      0.066728679434     0.0669273722101     0.0670701838504     0.0671467137416     0.0671502801214     0.0671045128481     0.0670365197008
   0.00948759510053     0.0661121679561     0.0662672205923     0.0664734155013      0.066697725313     0.0669090946631     0.0670769240503     0.0671763272733     0.0671980963089     0.0671624631549     0.0670918727645
   0.00951671721825     0.0661132268542     0.0662643294793     0.0664640227029      0.066691882635     0.0669046656192     0.0670791125495     0.0671964155693     0.0672418135739       0.06721935576     0.0671456473783
   0.00954583412026     0.0661323533867     0.0662508419481     0.0664571565103     0.0666861496774     0.0669166961068      0.067101918142     0.0672285271137     0.0672842515273     0.0672734304526     0.0672019948295
   0.00957499310901     0.0661927334847     0.0662946710195     0.0664680321928     0.0666859124747     0.0669176368816     0.0671138219727     0.0672623548731     0.0673368884131     0.0673316520923     0.0672591865228
   0.00960410376704     0.0662297753892     0.0663147037703     0.0664896486813     0.0667035468131     0.0669305258351     0.0671295981656     0.0672869142548     0.0673779718945     0.0673867243866     0.0673148308478
   0.00963318208458     0.0663099704311     0.0663708709972     0.0665191790788     0.0667241593074     0.0669581804598     0.0671592579616     0.0673234916595     0.0674202968333     0.0674324626325     0.0673695753884
   0.00966237603224     0.0664154402141     0.0664626088378     0.0665814479824      0.066770947218     0.0669876343044     0.0671840119469     0.0673567024795     0.0674629643911     0.0674866864291     0.0674256196546
   0.00969162513694     0.0665319528789     0.0665459615029     0.0666337169375      0.066813338896     0.0670246464472     0.0672177191416     0.0673856421402     0.0674992738694     0.0675323234497     0.0674763704667
   0.00972078808842      0.066628540479     0.0666347661995     0.0667111955555     0.0668643707596     0.0670542121229     0.0672389141854     0.0674148751394     0.0675367184882     0.0675686135756      0.067519118841
   0.00974999870707     0.0667689588477     0.0667455399573     0.0667898814885     0.0669156960103     0.0670948206178     0.0672699357892     0.0674396670806     0.0675609394783     0.0676024006384     0.0675615797989
   0.00977928645462     0.0668927766675     0.0668572109892     0.0668849698034     0.0669749968615     0.0671307710151     0.0672968697409     0.0674614339903     0.0675877639007     0.0676318641303     0.0675977835791
   0.00980849103932     0.0670738840486     0.0669871443612     0.0669762440948     0.0670329097197     0.0671683128195     0.0673221980125     0.0674774663165     0.0676089235454     0.0676586849079      0.067626619754
    0.0098378179547     0.0671782790995     0.0671018615981     0.0670785319299     0.0671080043528     0.0672089494758     0.0673473232734      0.067492620643     0.0676195654288     0.0676731705787     0.0676519400677
   0.00986713497353     0.0673461978214     0.0672389875142     0.0671673008602      0.067169826078     0.0672475068488     0.0673713183661     0.0675067604649     0.0676257039059     0.0676857130903     0.0676685110858
   0.00989632528964     0.0674942982388     0.0673583085731     0.0672774581715     0.0672504887023     0.0672919630946     0.0673898955102     0.0675161837282     0.0676253308942     0.0676903439836     0.0676802164109
   0.00992545608201     0.0676309325846     0.0674841196764      0.067369491604     0.0673223319683     0.0673380385374     0.0674085080104     0.0675227576634      0.067620593659      0.067683941205     0.0676851138021
   0.00995469369342      0.067755992897     0.0676002903679     0.0674715317365     0.0673931866431     0.0673749380631     0.0674250486805     0.0675210133059     0.0676066065628     0.0676710190261     0.0676859866964
    0.0099838387141     0.0678722831558      0.067716365461     0.0675664681557     0.0674654719087     0.0674192121777      0.067434381152     0.0675067958244     0.0675881692735     0.0676507699948     0.0676753733307
    0.0100130899847     0.0679898945776     0.0678266283341     0.0676500155437     0.0675176986084     0.0674454883222     0.0674396349148     0.0674947424955      0.067566108886     0.0676251942911     0.0676553727811
    0.0100423674169     0.0680948970567     0.0679226514236     0.0677358711098     0.0675794514273     0.0674796436654     0.0674427116986     0.0674736258314     0.0675364891758     0.0675946967655     0.0676359028608
    0.0100716131598     0.0681829384216     0.0679962481871      0.067795559796      0.067628635302     0.0675094292647      0.067449621002     0.0674516824729     0.0674996506047     0.0675606882272     0.0676071534869
    0.0101008373464     0.0682482650651     0.0680786500027     0.0678651174645     0.0676721596477     0.0675218071166     0.0674417067886     0.0674197102681      0.067460261162     0.0675208047506     0.0675704909975
    0.0101300015373     0.0682895040673      0.068121589795     0.0679197938782     0.0677249384877     0.0675489450069     0.0674377087472     0.0673883222352      0.067412950807     0.0674718960014      0.067531554126
    0.0101589161372     0.0683087262142     0.0681630433863     0.0679607775029     0.0677486111746     0.0675616853446     0.0674377653621     0.0673614026092       0.06736427277     0.0674214678931     0.0674835367611
    0.0101879711088     0.0683325247254      0.068186797127     0.0679891425959     0.0677658140256     0.0675585170004     0.0674130120195     0.0673263171394     0.0673171654285     0.0673665665723     0.0674322130459
    0.0102170205721     0.0682999310207     0.0681719613232      0.067996309671     0.0677748614299      0.067558355174      0.067390000341      0.067284674522     0.0672578778314     0.0673053151961     0.0673764978164
    0.0102459327021      0.068281164471     0.0681785319918     0.0680022739062     0.0677741846862     0.0675522015532     0.0673759272449     0.0672567214589     0.0672090028121     0.0672412003904     0.0673120703571
    0.0102748456427     0.0682481572636     0.0681624379869     0.0679945436849     0.0677814462682     0.0675488345437       0.06735808032     0.0672261103984     0.0671670718223     0.0671836490244     0.0672530268349
    0.0103036772968     0.0681879247531      0.068108086601      0.067958763909     0.0677606741657     0.0675370428192      0.067340310336     0.0671927737068     0.0671193575879      0.067126061337     0.0671952478605
     0.010332435829     0.0680976399149     0.0680447319769     0.0679212239888     0.0677340958434     0.0675125917632     0.0673127377125     0.0671624984938     0.0670771953297     0.0670704848826      0.067137733336
    0.0103611389251     0.0680116585311     0.0679797050226     0.0678725532462      0.067705836812     0.0674979124578     0.0672921182837     0.0671317052175      0.067038673047     0.0670241985526      0.067087000461
    0.0103898025827     0.0679016348163      0.067895420702     0.0678145050775     0.0676667271834     0.0674680151464     0.0672704719415     0.0671105612924     0.0670045012325     0.0669770267407     0.0670377774201
    0.0104184381693      0.067799781789     0.0678219893856     0.0677537217729     0.0676177696158     0.0674395178191     0.0672491519027     0.0670844434496     0.0669761428081     0.0669387128728     0.0669902759862
    0.0104470625711     0.0676827136447     0.0677093696055     0.0676653306425     0.0675650538284     0.0674111977283     0.0672317481934     0.0670663787062     0.0669509788768     0.0669053041816     0.0669514108101
    0.0104756946795     0.0675525204164      0.067594075156     0.0675913732567     0.0675050774152     0.0673708163181     0.0672115414605     0.0670517462833     0.0669378323061     0.0668842957852     0.0669160127657
    0.0105043495077      0.067401741073     0.0674812756497     0.0674932803094     0.0674400240071      0.067338043469     0.0671883529897     0.0670355604592     0.0669226507098     0.0668677099083     0.0668889006807
    0.0105330407085      0.067265609794      0.067362584701     0.0673977510384     0.0673777598029     0.0672926894351     0.0671688094737     0.0670320113239     0.0669127184031     0.0668512742001     0.0668622392781
    0.0105617900395     0.0671464900238     0.0672421815912     0.0673012829422      0.067310548632     0.0672535751902     0.0671542786616     0.0670288408442     0.0669128468698     0.0668493951528     0.0668502129607
    0.0105906155592     0.0670175051434     0.0671297955832     0.0672063806188     0.0672423394599     0.0672178561017     0.0671395265976     0.0670282551576      0.066918155881      0.066855144014     0.0668480906426
    0.0106195004181     0.0669024815613     0.0670215699598     0.0671137527205     0.0671749495183     0.0671751874328     0.0671242520356     0.0670329278837     0.0669322911722     0.0668653565561     0.0668473460768
    0.0106484109533     0.0667577635133      0.066908994828     0.0670302618974     0.0671085217497     0.0671381789118     0.0671119931953     0.0670401461267     0.0669554081329     0.0668857065484     0.0668563507384
    0.0106773875545      0.066636530326     0.0667993995021     0.0669327446902      0.067040537732     0.0671003724148     0.0671010898562     0.0670535041067     0.0669787477335     0.0669118228147     0.0668771660053
    0.0107064118482     0.0665598868029     0.0667077303771     0.0668569871896     0.0669841184573     0.0670638995023     0.0670904947542     0.0670648451553      0.067005831773     0.0669411659931       0.06689738632
    0.0107354016071     0.0664597586519     0.0666192013675      0.066789647148     0.0669342375745     0.0670396070064     0.0670907476912     0.0670831932118     0.0670342316553     0.0669747223583     0.0669269206977
     0.010764493215     0.0663918018207     0.0665479012231     0.0667232729489     0.0668825455358     0.0670101598982     0.0670892985197     0.0671031600978     0.0670676000374     0.0670135862194     0.0669650231938
    0.0107936091576     0.0663147226469      0.066482180597     0.0666696011068     0.0668447612549     0.0669912175922     0.0670820960761     0.0671165727129     0.0670979878489      0.067056284966     0.0670044573683
    0.0108226437233     0.0662881995016     0.0664297969634     0.0666185864041     0.0668119065275     0.0669717835963     0.0670824321682     0.0671382277812     0.0671313248438     0.0670959279288     0.0670448838811
    0.0108517105906     0.0662632087627     0.0664093083722     0.0665856963215     0.0667810500884     0.0669600107505     0.0670901008617     0.0671674835424     0.0671759704227     0.0671434550242     0.0670883974014
     0.010880729318     0.0662632678826     0.0663898786968     0.0665658901715     0.0667687364136     0.0669518969056     0.0670930096158     0.0671953931372      0.067223605119     0.0671990292069     0.0671409032963
    0.0109097737732     0.0662610045071     0.0663774743368     0.0665528079938     0.0667548712722     0.0669531302863     0.0671096407599     0.0672168943271     0.0672612069669     0.0672475131245     0.0671917819287
    0.0109388244123     0.0662965453335     0.0663893250762      0.066555978814     0.0667500626182     0.0669526258214     0.0671222277603     0.0672454727349      0.067302534819     0.0672918268024     0.0672336542073
    0.0109679935469     0.0663309714542     0.0664184309591      0.066578638971     0.0667645110749     0.0669668485139     0.0671410355443     0.0672697121069     0.0673396676015     0.0673417127986     0.0672854806412
    0.0109971253423     0.0663861639958     0.0664625112797      0.066599620929     0.0667903804956     0.0669870332614     0.0671649394447     0.0673023328392     0.0673771066114     0.0673854471121     0.0673344825817
    0.0110262156586     0.0664689525926     0.0665159570771     0.0666396667211     0.0668136151856      0.067003930804     0.0671855077062     0.0673323896172       0.06741823967     0.0674333466709     0.0673806826584
    0.0110552863237     0.0665571974467     0.0665843385525     0.0666857368004      0.066842839251     0.0670260969134     0.0672028758196      0.067356588653     0.0674523704313      0.067474457778     0.0674303558119
    0.0110844496291     0.0666568018536     0.0666610000585     0.0667398880867     0.0668763025867     0.0670566354589     0.0672284464287     0.0673802348389     0.0674826064618     0.0675102415145     0.0674668262636
    0.0111135190122      0.066758255204     0.0667498300202     0.0668048123235     0.0669173040586     0.0670818739161     0.0672481418839     0.0674034889566     0.0675111540846     0.0675392030055     0.0674989747575
    0.0111427443588     0.0668877829214       0.06684724053     0.0668799756166      0.066970827044      0.067113916416      0.067268760872     0.0674173430321     0.0675277233288     0.0675654427758     0.0675329861927
    0.0111720475967     0.0670155867843     0.0669523249031     0.0669670877509     0.0670383981076     0.0671570917541      0.067298798739     0.0674383422292     0.0675470746586     0.0675924382746     0.0675634039867
    0.0112012901329     0.0671199865458     0.0670573567408       0.06704520735     0.0670946641477     0.0671933474083     0.0673285747398     0.0674604080266     0.0675700081165     0.0676190901337     0.0675900280019
     0.011230485005     0.0672502324982     0.0671588860359     0.0671283650582     0.0671498266091     0.0672275094361     0.0673452518338     0.0674719875536     0.0675807779307      0.067634533427     0.0676093626481
    0.0112596276147     0.0673974641641     0.0672905335306     0.0672248927892     0.0672228606897     0.0672726115256     0.0673627414508     0.0674761137073      0.067577483788     0.0676368717541     0.0676205619374
    0.0112887080972     0.0675100388686     0.0673970379511     0.0673116613633     0.0672805562538     0.0673116327657     0.0673842288399     0.0674875216071     0.0675768538433     0.0676355605945     0.0676269494193
    0.0113177906605     0.0676219135196     0.0674931034098      0.067393452734     0.0673414904277     0.0673478682968     0.0673926550218     0.0674862270495     0.0675701125475     0.0676314149564     0.0676314240306
    0.0113469208868     0.0677571542099      0.067616664525     0.0674828101042     0.0674000909612     0.0673784869148     0.0674072238658     0.0674796363277     0.0675507388521     0.0676125306224     0.0676254197032
    0.0113760805587     0.0678673707365     0.0677061416623     0.0675710531685     0.0674688723599     0.0674129639274     0.0674135939039     0.0674664470381     0.0675322105779     0.0675886521884     0.0676131380795
    0.0114052977669     0.0679334871199     0.0677715089628     0.0676294801518     0.0675082980931     0.0674370208284     0.0674218885219     0.0674522979882     0.0675058253476     0.0675633605129     0.0675994305399
    0.0114344891293     0.0680264709615     0.0678681970865     0.0676963276134     0.0675484894287     0.0674542755395      0.067418667607      0.067433721531     0.0674837640948     0.0675342324445     0.0675752216365
    0.0114637009964     0.0680788757579     0.0679326422457     0.0677672006457      0.067603001307     0.0674797664628     0.0674151308205     0.0674117627024     0.0674536092737     0.0675027455962     0.0675474993228
    0.0114929150737     0.0681345824145      0.067979485547     0.0678123602687     0.0676316270235     0.0674938549304     0.0674151108655      0.067390391952     0.0674167020304     0.0674635826349     0.0675105037294
    0.0115220432675     0.0681557377987     0.0680184000931     0.0678457102068     0.0676531710108     0.0674996728471     0.0674031518074     0.0673654945904      0.067377141089     0.0674161182467     0.0674648270771
    0.0115511905429     0.0682106522462     0.0680637018265     0.0678844044847     0.0676869342356     0.0675130574012     0.0673932987889     0.0673354020702     0.0673311603596     0.0673676579698     0.0674211429362
    0.0115803828335     0.0681870936172     0.0680695427805     0.0679083022385     0.0677095404906     0.0675244389074     0.0673879715064     0.0673076529126      0.067287765959     0.0673189046111     0.0673777266191
    0.0116094919988     0.0681816866922     0.0680624496105     0.0679022388715     0.0677132456848     0.0675243695241     0.0673698935208     0.0672755107753     0.0672466680095     0.0672721002487       0.06733103832
    0.0116385162459     0.0681643129503     0.0680648877329     0.0679113463712      0.067710533887     0.0675137189512     0.0673551001578     0.0672469194663     0.0672025581712     0.0672196121393     0.0672796842134
    0.0116674688737      0.068097677421     0.0680312536449     0.0679001653299     0.0677117448302     0.0675161156748     0.0673433259908     0.0672196067644     0.0671645024404     0.0671696892144     0.0672270117561
    0.0116963595106     0.0680313537695     0.0679620176643     0.0678428482872      0.067675651563     0.0674936703725     0.0673267822509     0.0671933058817     0.0671249207713     0.0671206796617     0.0671808081411
    0.0117252023828     0.0679772934967     0.0679315625956     0.0678211206534     0.0676503595604     0.0674699615594      0.067298432744     0.0671625825278     0.0670873598023     0.0670733424334     0.0671332649161
    0.0117540003013     0.0678953987928     0.0678703484398      0.067777138539     0.0676287503222       0.06745689892     0.0672812879128     0.0671388311187     0.0670544090101     0.0670324297914     0.0670882076094
    0.0117827617217     0.0677875304538      0.067785456145      0.067709629672     0.0675866457373     0.0674299646002     0.0672611570191     0.0671183669936     0.0670277298617     0.0669953551712     0.0670446131165
    0.0118115027089     0.0676751106374     0.0676867525964     0.0676435049819     0.0675424844729     0.0673961193641     0.0672431095533      0.067098185508     0.0669984056923     0.0669614804458     0.0670056135184
    0.0118402322194     0.0675581387672     0.0676093240044     0.0675852174575     0.0675012645204     0.0673726045373     0.0672293143695     0.0670816908582     0.0669799035586     0.0669374295665     0.0669707028867
    0.0118689695901     0.0674419704232     0.0674997031643     0.0675010749108     0.0674517854593     0.0673419630806     0.0672145592146     0.0670744026535        0.0669687824     0.0669252956842      0.066948138991
    0.0118977263652     0.0673488848072     0.0674053479014     0.0674259456879     0.0673839311814     0.0672957627487     0.0671921162501     0.0670669875476     0.0669637622065     0.0669147563899     0.0669291404709
     0.011926505042     0.0672266197017     0.0673047909366     0.0673487551605     0.0673298876105       0.06726676388     0.0671721776531     0.0670639394456     0.0669593824583     0.0669064590116     0.0669085460955
    0.0119553178288     0.0670906465678     0.0672027748871     0.0672565353954     0.0672710932166     0.0672393303778     0.0671622946351     0.0670650604094     0.0669640800926     0.0669053727047     0.0669002392313
    0.0119841843875      0.066986051875     0.0671115772518     0.0671842208443     0.0672166345956     0.0672053697463     0.0671459678952     0.0670614148585     0.0669657593373     0.0669085293921     0.0669014616138
    0.0120131087265     0.0668616259522     0.0669977375279     0.0670994400795     0.0671614244964     0.0671777864195     0.0671375730933     0.0670644610308     0.0669773090895     0.0669187269459       0.06689970812
    0.0120420271255      0.066771607058     0.0669076806582     0.0670116806374     0.0670981432967     0.0671388444086     0.0671295378045     0.0670729630157     0.0669997071828     0.0669383510642     0.0669127890733
    0.0120707658704     0.0666905058147     0.0668081610714     0.0669510973289     0.0670505321127     0.0670991982557     0.0671128675702     0.0670785425883     0.0670216956904     0.0669637125117     0.0669386446908
    0.0120995914581     0.0666029823974     0.0667377268337     0.0668849267144     0.0670015668067     0.0670803457974     0.0671129818065      0.067087892312     0.0670412443262     0.0669924739333     0.0669632287085
    0.0121284554046      0.066515602907     0.0666522164788     0.0668068413934     0.0669438214469     0.0670425633783     0.0671025624877     0.0671064354009     0.0670751355434     0.0670238266717     0.0669860198411
    0.0121573921225     0.0664798881768     0.0666079863184     0.0667633416141     0.0669103097357     0.0670246953912     0.0670915024719     0.0671190234376     0.0671024150377     0.0670574884126     0.0670194844726
    0.0121864291915     0.0664242301432     0.0665571081953     0.0667213018551     0.0668761896734     0.0670128493293     0.0671033311477     0.0671461549594      0.067131688265     0.0670924351177      0.067052173531
    0.0122154523189     0.0663954699984     0.0665242223011      0.066684284358     0.0668512975566     0.0670053744473     0.0671046931015     0.0671679911265     0.0671738831394     0.0671371101794     0.0670920922388
    0.0122444543781     0.0663761464352     0.0664887420717      0.066656248573     0.0668334350193     0.0669990992971     0.0671117749567     0.0671850191722      0.067203118251     0.0671790255671      0.067133896891
    0.0122735786493     0.0663781707098     0.0664909492714     0.0666503639694      0.066825571433     0.0669931267554      0.067120309347     0.0672081132125     0.0672412597903     0.0672191098492     0.0671689687412
    0.0123026725635     0.0663966155894     0.0664964404222     0.0666426120726     0.0668286839465     0.0669944192829     0.0671301616717     0.0672286178592     0.0672799098443     0.0672686425624     0.0672162237279
    0.0123315022856     0.0664213945695     0.0665173960138     0.0666532250283     0.0668255841579     0.0669959660873     0.0671451502431     0.0672498033229     0.0673121200558     0.0673102463133     0.0672585791459
    0.0123605090825     0.0664631017545     0.0665368017311     0.0666537236164     0.0668279566204     0.0670071569633     0.0671613417085     0.0672758394938     0.0673480562364      0.067347966369     0.0672924101797
    0.0123895345541     0.0665198722869     0.0665692171843     0.0666903231086     0.0668447276382      0.067023100195     0.0671822846031     0.0673064572869     0.0673835085458     0.0673895024364     0.0673376831772
    0.0124186134778     0.0665976822394     0.0666305766712     0.0667233459758     0.0668665349528     0.0670424213961     0.0671978588807     0.0673286202521     0.0674101723079     0.0674288374072     0.0673784215059
    0.0124477961552     0.0666905114595     0.0667066442591     0.0667796768354     0.0669052271676     0.0670633084333     0.0672146110666     0.0673472627611     0.0674321751364     0.0674576110241     0.0674106318363
    0.0124770586785     0.0667571562975     0.0667592174223     0.0668300080634     0.0669454511257     0.0670964885737     0.0672382519888     0.0673688016576     0.0674562006748     0.0674895685379     0.0674491422817
    0.0125063006147      0.066869263291     0.0668518222806     0.0668910382306     0.0669837327726     0.0671217153023       0.06725939298     0.0673926700274     0.0674833214656     0.0675221439667     0.0674873416183
    0.0125355271815     0.0669679320153     0.0669428157237     0.0669590600924     0.0670307338412     0.0671498917997     0.0672809530698     0.0674123218548      0.067506849998     0.0675462046966     0.0675162979908
     0.012564779617     0.0670873067689     0.0670351673026     0.0670264969296     0.0670851111975     0.0671863706661     0.0673073109107     0.0674345136447      0.067523355279     0.0675606048846     0.0675419595991
    0.0125940132992     0.0672027097305     0.0671281150827     0.0670972360765      0.067131713705     0.0672183238721      0.067331525455     0.0674484240628     0.0675346658777     0.0675758515751      0.067561543239
    0.0126232963962     0.0672940345386     0.0672170033468     0.0671709700185     0.0671863648939     0.0672488493095     0.0673413745186     0.0674486748083     0.0675375004896     0.0675810333903     0.0675738782245
    0.0126525776963     0.0674154300096     0.0673376408921     0.0672600072924     0.0672473533207     0.0672820201552     0.0673603728586     0.0674519194287     0.0675325799802     0.0675763153528     0.0675760149287
     0.012681821113     0.0675333755262     0.0674210695591     0.0673376039529     0.0673063935885     0.0673172105679     0.0673778753254     0.0674532249415     0.0675300577244     0.0675761421886     0.0675799022216
    0.0127110032462     0.0676257577549     0.0675072992312     0.0674044689397     0.0673465795122     0.0673393605679     0.0673833089882     0.0674453919933     0.0675201155721     0.0675723245533     0.0675812819145
     0.012740199696     0.0677234221421     0.0675850626025     0.0674800441114     0.0674083481363     0.0673706920735      0.067390921093     0.0674375245019     0.0675031850577     0.0675594896441     0.0675724559537
    0.0127693344354     0.0678003641354     0.0676742721121     0.0675493784311     0.0674451600586      0.067395914755     0.0673995009258     0.0674327452476      0.067487929481     0.0675442319623     0.0675624245845
    0.0127985291852     0.0678999198533     0.0677448775575     0.0676071084293     0.0675000597068     0.0674188379228     0.0673918311624     0.0674182541548     0.0674655640723     0.0675230986613     0.0675444238447
    0.0128276324551     0.0679400709441     0.0678132240888     0.0676678750024     0.0675363518652     0.0674440745586     0.0674001385771     0.0674038267467     0.0674381655482     0.0674891070424     0.0675153619671
    0.0128566617224     0.0679899558934     0.0678700801694      0.067707847168     0.0675704122448     0.0674648471166     0.0673979462921     0.0673909101228     0.0674133725716      0.067453789974     0.0674869162788
    0.0128857628339     0.0680291060809     0.0678979809286     0.0677529922925      0.067600932486     0.0674749854903     0.0673949891077     0.0673639637466     0.0673783887005     0.0674214687928     0.0674573670608
    0.0129148646793      0.068070312897     0.0679586180529     0.0677921864062     0.0676197215395     0.0674854627595     0.0673831637285     0.0673305893095     0.0673405632346     0.0673779068198     0.0674173929869
     0.012944044837     0.0680828325109     0.0679800216619     0.0678117943604     0.0676460270898     0.0674929717382     0.0673773453545     0.0673072461396     0.0673012449781     0.0673304397731      0.067377703337
    0.0129731809589     0.0680636947314     0.0679724155308     0.0678250715135     0.0676522407103     0.0674918385673     0.0673701108176     0.0672887143174     0.0672691806148     0.0672913714613     0.0673429529367
    0.0130022580027     0.0680567396595      0.067960978158     0.0678210282364     0.0676489629146     0.0674840935638     0.0673528484605     0.0672600635711     0.0672318650295     0.0672506844512     0.0673026474295
    0.0130312857859     0.0680108286954     0.0679445699701     0.0678209677916     0.0676419627571     0.0674759548549     0.0673380186219     0.0672370358582      0.067191980265     0.0672007629712     0.0672560966544
    0.0130602563427     0.0679957519009     0.0679196037484     0.0678012802753      0.067638291259     0.0674718810932     0.0673283120525     0.0672162960251     0.0671545799058     0.0671565875113     0.0672071047699
    0.0130891829761     0.0679057940034     0.0678588783871     0.0677640222658     0.0676158387427     0.0674574139089     0.0673190430886     0.0671920701004     0.0671203803551     0.0671157599111      0.067162541064
    0.0131180716996     0.0678420298609     0.0678047896542     0.0677180763493     0.0675901437547     0.0674406937378     0.0672944319255      0.067165414666     0.0670901076912     0.0670765295752     0.0671242355291
    0.0131469350953      0.067775741093     0.0677455785734      0.067680323309     0.0675666574746     0.0674233527249     0.0672797230355     0.0671447661555     0.0670613033184     0.0670436099481     0.0670876214788
    0.0131757843444     0.0676929646014     0.0676889486516     0.0676417053091     0.0675347894761     0.0674030718729     0.0672626359879     0.0671310984368     0.0670460921358     0.0670138297773     0.0670524167563
    0.0132046372663     0.0675933976553     0.0676040204495     0.0675702810898      0.067491849052     0.0673759004779     0.0672419595949     0.0671177812522     0.0670262326544     0.0669899189255     0.0670241971659
    0.0132335227719     0.0674883156428     0.0675199659352     0.0675060913737     0.0674385124151     0.0673423100874     0.0672233778233     0.0671052477635     0.0670102548683     0.0669703217432     0.0669986906665
    0.0132624282258     0.0673696627261     0.0674493690069     0.0674435956028     0.0673992435494     0.0673200827508     0.0672079915698     0.0670938736767      0.067002494066     0.0669590092803     0.0669765723976
    0.0132913647689     0.0672909900852     0.0673599307178     0.0673771327247     0.0673557912507     0.0672901601955     0.0671971746924     0.0670906842436     0.0670043334473     0.0669530874994     0.0669600439101