# Probe 0 (0.00909091 0.05 0.02)
# Probe 1 (0.01818182 0.05 0.02)
# Probe 2 (0.02727273 0.05 0.02)
# Probe 3 (0.03636364 0.05 0.02)
# Probe 4 (0.04545455 0.05 0.02)
# Probe 5 (0.05454545 0.05 0.02)
# Probe 6 (0.06363636 0.05 0.02)
# Probe 7 (0.07272727 0.05 0.02)
# Probe 8 (0.08181818 0.05 0.02)
# Probe 9 (0.09090909 0.05 0.02)
#             Probe                   0                   1                   2                   3                   4                   5                   6                   7                   8                   9
#              Time
   0.00945854825163                   (86.3239140508 55.4567611781 0.222599207037)                   (86.045791817 55.1693366397 0.0918284013226)                   (85.4297034513 55.1674145354 -0.112888533726)                   (85.8774407845 55.2633211821 -0.379584026121)                   (85.8683587155 55.5419265871 0.155563925997)                   (85.5415087273 55.2830515593 0.205636740776)                   (85.265124022 54.9409224637 -0.0430850591288)                   (85.1115301682 55.2175341429 -0.0151535048941)                   (84.828891435 55.0587178566 -0.0957074086292)                   (84.4812795689 54.7697902993 0.168691659656)
   0.00948759510053                   (86.0340321872 55.4168956385 0.366635898909)                   (85.8321477636 55.1646313159 -0.0231144724461)                   (85.3122993479 55.1925430062 -0.0756724830448)                   (85.6015489113 55.2935581538 -0.455256970382)                   (85.6788911301 55.580800459 0.346533856431)                   (85.0989745831 55.2748971612 0.317769076386)                   (84.6432698321 54.9248563017 -0.0386330821833)                   (84.6793260423 55.2953865288 -0.015522306558)                   (84.3436411236 55.148106706 -0.114536505328)                   (83.9081547157 54.8097134579 0.0910685348249)
   0.00951671721825                   (85.7183792624 55.2468479897 0.231951951088)                   (85.7192030028 55.1109531943 -0.290020746635)                   (85.2814395631 55.2998404927 -0.176600249002)                   (85.2900701776 55.3128035977 -0.349476688129)                   (85.4359386269 55.5981733944 0.377350423404)                   (84.7226438813 55.2256066955 0.360298524163)                   (84.1213250293 54.920889987 0.00913691125237)                   (84.2868609748 55.4058204211 0.0483948603279)                   (83.9130784702 55.256445658 -0.19258846153)                   (83.4206526831 54.8748534408 -0.0238301778104)
   0.00954583412026                   (85.4873346561 55.0750414898 -0.0904568963992)                   (85.5976375695 55.1788979594 -0.353824298404)                   (85.0186548805 55.2990519453 -0.0615587866853)                   (84.8858835114 55.3225030214 -0.200482961615)                   (85.0464758859 55.5704764841 0.228937001531)                   (84.4087973452 55.1419629869 0.28814793643)                   (83.7045671817 54.9198630811 0.10140823293)                   (83.9101906346 55.5322713772 0.122446397648)                   (83.520974009 55.3413812301 -0.276846608307)                   (83.0069124229 54.9448668478 -0.0845270473539)
   0.00957499310901                   (85.251342961 55.1713324823 -0.219756185369)                   (85.4885628706 55.1288768719 -0.161285145418)                   (84.651044786 55.2340642313 0.122195707994)                   (84.440637995 55.2389230224 -0.142463393491)                   (84.5193058593 55.4739337507 0.104512009916)                   (84.0591162808 55.179660403 0.19701930857)                   (83.3135094556 54.9580476999 0.116758000666)                   (83.5625730745 55.610348288 0.132501868947)                   (83.1525250518 55.3862502618 -0.327012983072)                   (82.6243122717 55.0185470727 -0.0459501616329)
   0.00960410376704                   (85.0271857139 55.6289680818 -0.330768312692)                   (85.0836960585 55.096084403 0.0281791250003)                   (84.4238977084 55.1699783016 0.217785581686)                   (84.0619921079 55.1313986478 -0.170432465201)                   (84.0275516705 55.3533892331 -0.0446761981339)                   (83.7168153192 55.3191606835 0.152498887937)                   (82.9121766578 54.9840383746 0.049773378311)                   (83.166203612 55.6464405004 0.106590661525)                   (82.7841989611 55.412816919 -0.327145287751)                   (82.3009358864 55.0935916669 0.0796807392306)
   0.00963318208458                   (85.0796379356 55.8191234468 -0.0975539182969)                   (84.7608026609 55.2720528366 -0.0257851737725)                   (84.1565003246 55.0836794446 0.23022289109)                   (83.7092924857 55.0610972781 -0.0722976594456)                   (83.6169752788 55.2592988145 -0.22746599624)                   (83.4059169667 55.476178759 0.117958655326)                   (82.6079133036 54.906626527 -0.034877138138)                   (82.7679897143 55.6239358163 0.0661988231849)                   (82.4036896533 55.4307246717 -0.281863720581)                   (81.9914645897 55.1651553605 0.245518107713)
   0.00966237603224                   (85.2664265859 55.1456935778 0.410905557783)                   (84.6735324793 55.4188746221 -0.013374588263)                   (83.8829142332 55.0838104968 0.108247821079)                   (83.392796367 54.9988699732 0.0497926860667)                   (83.2522752853 55.2139150076 -0.328651673417)                   (83.1093145328 55.5152423064 0.116582700943)                   (82.4063929974 54.8035236548 -0.0299955204697)                   (82.4451085813 55.6127193222 -0.0233473698993)                   (82.0452886047 55.4327042109 -0.24809670617)                   (81.7512431248 55.2175772542 0.343498226974)
   0.00969162513694                   (85.3603244951 54.9283016891 0.68909762788)                   (84.6784984303 55.6651796389 0.00924165122622)                   (83.7827985782 55.3361106209 0.120016450951)                   (83.0819994156 55.0028383084 0.118015258734)                   (82.9869299782 55.2282850074 -0.277184294929)                   (82.8851733275 55.3774485776 0.0794696129667)                   (82.3167718396 54.754040091 0.0565829084099)                   (82.1874424575 55.599182171 -0.0850957832889)                   (81.765001056 55.4508094178 -0.228223204516)                   (81.6200062775 55.2565469146 0.328961278652)
   0.00972078808842                   (84.9938589396 54.9816515584 0.108123615264)                   (84.6459889834 55.5297209618 -0.0117489572766)                   (83.942079549 55.5288760395 0.246056333024)                   (82.871996131 55.0101733711 0.15200714899)                   (82.7405495665 55.2977751404 -0.0513073736797)                   (82.7263989294 55.2079561589 -0.0152360975262)                   (82.3092407573 54.8236147543 0.10440283246)                   (82.0588220455 55.505819563 -0.102977264167)                   (81.6281048637 55.4475814566 -0.202314897897)                   (81.5672196283 55.2820773653 0.295781719437)
   0.00974999870707                   (84.5141877206 54.8613921705 -0.0689254862571)                   (84.5016613674 55.2005384451 -0.0711679531549)                   (83.9091324884 55.5927214437 0.238626574286)                   (82.7806404649 54.9460597129 0.17624850307)                   (82.5435162612 55.3205524824 0.229943058805)                   (82.6846459665 55.0324298812 -0.0935355921053)                   (82.3456685496 54.9625412513 0.0731871395459)                   (81.9890657392 55.3680032923 -0.0772300203757)                   (81.6551515036 55.4276549564 -0.196867533652)                   (81.5977236334 55.2819135866 0.257304503612)
   0.00977928645462                   (84.3847401723 54.7740060936 0.169608804388)                   (84.4047772701 55.1215193727 -0.161133928337)                   (83.6741699355 55.5611362041 0.0721629916892)                   (82.860552133 54.9273406828 0.177071550449)                   (82.4169636597 55.3517750902 0.34401485227)                   (82.6828045002 54.9467023833 -0.0674883873585)                   (82.4287185678 55.0634391096 0.0103056745072)                   (81.9442501482 55.2151774311 -0.0154532718371)                   (81.8017665436 55.3834824842 -0.183823644263)                   (81.6987679487 55.2677647794 0.207807305075)
   0.00980849103932                   (84.5902068431 54.7470412495 -0.0093723792894)                   (84.4513835361 55.1401672875 -0.276268183464)                   (83.4980046306 55.3977605444 -0.113167804101)                   (83.0122169914 55.0908640589 0.227412274717)                   (82.5090223183 55.238399835 0.263201687399)                   (82.6464675093 54.9852286139 0.040414586372)                   (82.5136218748 55.1266283648 -0.0904961409004)                   (81.9312390945 55.1089332875 0.0171835060883)                   (82.0331976645 55.3020595023 -0.14984712466)                   (81.9040642387 55.2360345385 0.170861840686)
    0.0098378179547                   (84.4123871143 54.6066309956 0.274749384021)                   (84.4030484186 55.1452194302 -0.255844704242)                   (83.5852670916 55.2105597953 -0.224065073204)                   (83.1516143643 55.4727368698 0.179656940422)                   (82.8037825742 55.0569198505 0.0987565477278)                   (82.5814854422 55.1289979489 0.0987229587805)                   (82.6294870752 55.1337213566 -0.178622576968)                   (82.0450850666 55.04473023 0.0352281190072)                   (82.2754671508 55.2473644661 -0.152261251725)                   (82.1861869148 55.1991921869 0.105996558235)
   0.00986713497353                   (84.581532258 54.9047868112 0.413016863108)                   (84.1903624206 55.1767146327 -0.140603894933)                   (83.624698356 55.1120222085 -0.267254987082)                   (83.2528793259 55.7101811748 0.0816067426961)                   (83.1127414739 55.0122119791 -0.0221112749545)                   (82.6555513492 55.3305200837 0.0519382828147)                   (82.7695847682 55.1665166066 -0.236218890694)                   (82.3509193448 55.0266186211 0.0580631044187)                   (82.5358347128 55.2357309698 -0.173966703513)                   (82.5112074353 55.1754420068 0.0804760181959)
   0.00989632528964                   (84.6002908195 54.8248041196 0.54805229279)                   (83.8962422283 55.2090315143 0.0807747277145)                   (83.6582077759 55.0634077905 -0.283045124978)                   (83.4520915666 55.5916434674 -0.0237337493114)                   (83.3126530074 55.132701563 -0.052838459208)                   (82.9391814899 55.4606944023 0.0408698613055)                   (82.9093125529 55.1773172618 -0.263370603227)                   (82.7624703689 55.0654305673 0.0147556159541)                   (82.8832406481 55.2861328246 -0.160045230594)                   (82.8667928948 55.1468417287 0.143394425083)
   0.00992545608201                   (84.3173780997 54.8564994041 0.299143295062)                   (83.8417432547 55.1622352918 0.193952771323)                   (83.6624433112 55.0462687992 -0.291362216909)                   (83.6368201225 55.3765780487 -0.102282370944)                   (83.5404410663 55.2348442749 -0.0264532717783)                   (83.3329312935 55.471170937 0.047731418919)                   (83.0694533444 55.1492911254 -0.245637712235)                   (83.1749638416 55.1295351875 -0.0903713496651)                   (83.3567536274 55.3388204914 -0.0740546494995)                   (83.2380208585 55.0954137762 0.210781073306)
   0.00995469369342                   (84.4853922613 54.7867230715 0.450552660193)                   (84.0044783113 55.116202639 0.148109501925)                   (83.8452935761 55.0792715363 -0.194027754289)                   (83.8287297466 55.3063025926 -0.182471227928)                   (83.8823641047 55.268858494 0.0550454391822)                   (83.7100215093 55.368215206 -0.006329923116)                   (83.2789872401 55.1029713542 -0.221724444589)                   (83.5360193765 55.1866272022 -0.235632002787)                   (83.9038520438 55.4088024911 0.0651209868428)                   (83.6554474682 55.0382541827 0.226714449398)
    0.0099838387141                   (84.9653285269 54.9177244269 0.344820192778)                   (84.1594455733 54.9880499619 0.0113618108217)                   (84.1420035127 55.1693298963 -0.10581967897)                   (84.1303261365 55.2230650312 -0.272393516246)                   (84.3170683936 55.2715301503 0.139894466054)                   (84.0682382722 55.2566923062 -0.0857963384451)                   (83.5351469635 55.1273563219 -0.155125510144)                   (83.8799539441 55.1848095228 -0.329614127015)                   (84.4141957073 55.4793838305 0.173689843352)                   (84.0987200257 55.0378282394 0.163927905826)
    0.0100130899847                   (85.2462650779 55.0603788737 0.333627535668)                   (84.2615611149 55.0400071531 -0.0840789323831)                   (84.470668281 55.2289275427 -0.0458874044763)                   (84.5064013952 55.2074321771 -0.207470408572)                   (84.6351204052 55.2779739804 0.157831732053)                   (84.4464114699 55.0591779541 -0.146612426763)                   (83.8888201808 55.170898677 -0.0596398325955)                   (84.2612173688 55.1691251643 -0.332111784723)                   (84.828130197 55.5202859998 0.221582562754)                   (84.5502196375 55.0926087905 0.0615734779044)
    0.0100423674169                   (85.1607304398 54.9416808876 0.0543677092827)                   (84.5156391583 54.9816291274 -0.145067296758)                   (84.7680580717 55.140914261 -0.0366167873312)                   (84.9155261124 55.2232023555 -0.0852206758116)                   (84.9081974291 55.2903969489 0.105963736152)                   (84.8551423913 54.8819042312 -0.163027051765)                   (84.3414234864 55.1618760342 0.0147478062358)                   (84.6812798481 55.1528176658 -0.277473083355)                   (85.1551982414 55.4841520532 0.163679175031)                   (84.9697455035 55.1664073142 -0.0148550259465)
    0.0100716131598                   (85.177390953 54.7954207285 -0.431189165793)                   (84.9206386766 54.7672423573 -0.0560060147051)                   (85.1030192215 55.1219078749 -0.145878190777)                   (85.2616086111 55.2307363683 0.0538378949692)                   (85.239684907 55.2015689316 0.133930947882)                   (85.3476489836 54.8022782836 -0.117147785513)                   (84.9214213996 55.0816168422 0.00210029732101)                   (85.1228410501 55.1780025477 -0.194185732165)                   (85.4459054114 55.4029622237 0.0555230067342)                   (85.3853870564 55.1993241093 -0.0358253944587)
    0.0101008373464                   (85.4799340717 54.9470749263 -0.410341216185)                   (85.3492382343 54.6467113484 0.0220621319359)                   (85.6599246127 54.9944257094 -0.325642456506)                   (85.5958770778 55.2236250422 0.130127483825)                   (85.6119181525 55.1230857789 0.208460422918)                   (85.80237898 54.8874307424 0.0477879509605)                   (85.5440434068 54.9922358942 -0.0479369074411)                   (85.600614988 55.1855483311 -0.0856245513293)                   (85.8006009805 55.3292753171 -0.0384336791947)                   (85.8122816762 55.1666428156 -0.0178418770667)
    0.0101300015373                   (85.7718889806 54.938600947 -0.0370548030691)                   (85.6248267727 54.5798270711 0.0533136180476)                   (86.1911910172 54.9132122659 -0.372737858335)                   (86.0235894784 55.1378923167 0.125443156608)                   (86.0383183993 55.0183728397 0.27729890778)                   (86.1394309222 54.9480046191 0.233032034311)                   (86.1284365918 54.9502149022 -0.0913935568009)                   (86.1352097221 55.1601162421 -0.0055296857428)                   (86.2047119758 55.2945838715 -0.0919738681519)                   (86.2381343453 55.0930567015 -0.0136997485655)
    0.0101589161372                   (85.9858453234 54.7863530309 0.15708686073)                   (86.0000866111 54.4434762328 -0.0596515019959)                   (86.4344105294 54.841749697 -0.173528479627)                   (86.4243812933 55.0279348147 0.131705104256)                   (86.4198573706 54.9545617426 0.328635465438)                   (86.41097804 54.8854231342 0.328002051178)                   (86.6731813677 54.9632942171 -0.0702700896434)                   (86.7130543001 55.1259685051 -0.00132811584008)                   (86.6379046698 55.247589701 -0.117365943504)                   (86.6637043297 55.0457965897 -0.0483083071849)
    0.0101879711088                   (86.0079309676 55.1580494502 0.198197063876)                   (86.3614914169 54.7587595952 -0.0669536401431)                   (86.5290623453 54.8353657796 0.006836363872)                   (86.8000305141 54.9015795648 0.10836880224)                   (86.7614057481 54.8898118921 0.42545625242)                   (86.6397393283 54.8567444431 0.352811624568)                   (87.1281992944 55.0666051058 -0.012180304278)                   (87.3123770309 55.1171295124 -0.00280687739992)                   (87.127093181 55.1397114699 -0.0825265667858)                   (87.1277257159 55.0725892314 -0.113092037544)
    0.0102170205721                   (85.7267516236 55.5069406644 -0.252707907346)                   (86.5257097488 55.1102397164 0.149604033299)                   (86.6496590207 54.8871055482 0.199712149938)                   (87.0921462721 54.827996123 0.0590093805574)                   (87.1079114914 54.7948782833 0.396853690377)                   (86.9340251562 54.8417455343 0.279823662605)                   (87.4569173958 55.1662980725 0.0160007125163)                   (87.8496927546 55.1607692906 0.0520521038089)                   (87.6532497238 54.9651711158 0.0136963360993)                   (87.6509176981 55.1726395701 -0.169164275352)
    0.0102459327021                   (85.6719650496 55.6206712792 -0.265343782979)                   (86.6671633021 55.0603094709 0.250250983728)                   (86.7620022802 54.777400417 0.27117455782)                   (87.3220079077 54.8185087234 -0.00830714203389)                   (87.3526592389 54.7305248032 0.274638279455)                   (87.309530775 54.8289749944 0.193703597788)                   (87.7423019658 55.1937622208 -0.0600397824097)                   (88.2924929908 55.2041816336 0.0989597791573)                   (88.1548676076 54.7945631741 0.115136399008)                   (88.2209824619 55.2665615091 -0.200664676739)
    0.0102748456427                   (86.1039199314 55.3745648203 -0.172600804042)                   (86.8341693531 55.0735514598 0.143618652675)                   (86.851904022 54.6449881079 0.115831632728)                   (87.5615805933 54.7572693209 -0.115753404362)                   (87.5463941759 54.6804192403 0.151975483108)                   (87.685016609 54.814237538 0.182005058756)                   (87.9810202746 55.196654669 -0.133096859828)                   (88.6269020097 55.2502407096 0.0800352093205)                   (88.6127760839 54.7019168799 0.136823112362)                   (88.7737497239 55.2378272989 -0.215768306931)
    0.0103036772968                   (86.3929975311 55.3779491831 -0.258942588135)                   (86.8099073132 55.2413265409 0.0374617088986)                   (87.0847080424 54.6783401955 0.0103881018396)                   (87.7284731611 54.8119155608 -0.203663413211)                   (87.7571416476 54.675585939 0.1022525645)                   (87.9857107934 54.805841095 0.166593049623)                   (88.2548274914 55.2101800241 -0.138482567866)                   (88.8815051339 55.3088779816 0.00888471397596)                   (88.9384685697 54.7275858366 0.0979668758029)                   (89.243143143 55.0556502395 -0.211117377554)
     0.010332435829                   (86.5480873411 55.105648973 -0.205121032301)                   (86.6059003144 55.3593673591 -0.16074278421)                   (87.4257110022 54.803033641 -0.0358001349181)                   (87.8913254093 54.9343351159 -0.22990389972)                   (87.9737715978 54.6974578197 0.129604130428)                   (88.1677146051 54.8580620339 0.0904207893578)                   (88.6176590048 55.2447377396 -0.0593157279753)                   (89.1121162956 55.3777788117 -0.0908638294961)                   (89.1733138607 54.833626843 0.0152957228188)                   (89.5688081074 54.8360119291 -0.174949633492)
    0.0103611389251                   (86.588266907 54.9742107919 -0.0619501376099)                   (86.7888647335 55.1874758303 -0.285446089064)                   (87.6745789886 54.9169673927 -0.125213636349)                   (88.0671271859 55.0215970905 -0.238984710193)                   (88.2696270589 54.6634953501 0.187650776547)                   (88.3366354199 54.8906769424 0.0194531589818)                   (88.9390459036 55.2954291353 0.0633806181483)                   (89.3265731535 55.439534046 -0.146616491638)                   (89.3931541337 54.9427440299 -0.0887160327545)                   (89.7608528775 54.711839764 -0.113335776896)
    0.0103898025827                   (86.7567231892 54.9920577481 -0.156648933758)                   (87.1903759302 55.0172777384 -0.412412040576)                   (87.7759361117 55.0349337306 -0.222588748925)                   (88.24481847 55.0493211606 -0.23730650293)                   (88.5386119135 54.6690367404 0.287915816322)                   (88.5014377865 54.9338128415 0.039450117481)                   (89.1658657754 55.3538991447 0.164270175676)                   (89.499329939 55.437886369 -0.134455207313)                   (89.588993705 55.0633140305 -0.170014386206)                   (89.8577729228 54.7441638525 -0.00257667748177)
    0.0104184381693                   (87.0766491765 55.1141968137 -0.210489197757)                   (87.5436838055 54.9872144392 -0.467010792692)                   (87.7775002023 55.1178453232 -0.226668081469)                   (88.3290849335 55.0247933586 -0.133615801596)                   (88.7407587976 54.7125043803 0.317265019398)                   (88.6674390814 54.9716643442 0.147870874317)                   (89.2127577198 55.4511080114 0.209844690347)                   (89.6037170053 55.3564435495 -0.0578572581821)                   (89.7669455041 55.2077116929 -0.191702347954)                   (89.8717793354 54.8628399182 0.110651841503)
    0.0104470625711                   (87.1753245675 55.1925243286 0.135430238925)                   (87.7004788429 55.0875810633 -0.354474803652)                   (87.633405601 54.989560838 -0.257296826718)                   (88.3332334936 55.0311089346 0.00670596372617)                   (88.8156838781 54.8027307758 0.211794015114)                   (88.8098819998 54.9243976596 0.288157427089)                   (89.1756951568 55.5234233666 0.16818739079)                   (89.6023539313 55.2921195812 0.0521454775146)                   (89.8626038621 55.4064696571 -0.156064206734)                   (89.8066364604 54.9404217252 0.159192758866)
    0.0104756946795                   (87.181550222 55.3493467768 0.276645744808)                   (87.7140113528 55.1148758565 -0.0687834458233)                   (87.5394731549 54.6935908648 -0.384748265039)                   (88.2708272549 55.0749272893 0.134017771165)                   (88.7565884453 54.9522521316 0.053557396158)                   (88.8532578442 54.8766031884 0.386470261427)                   (89.1294316701 55.532330922 0.0718558333686)                   (89.4940812033 55.265361025 0.126909381177)                   (89.8637385597 55.5638410381 -0.117206679876)                   (89.6470397903 54.9847070839 0.1119719694)
    0.0105043495077                   (87.2096609508 55.7051325996 0.107483990296)                   (87.7081355321 55.0697056084 0.118179875302)                   (87.5250255661 54.4930124575 -0.528442690283)                   (88.2032900614 55.1037490627 0.326633247609)                   (88.6856822785 55.0869505568 -0.00442170339868)                   (88.7845539748 54.905228345 0.384468495332)                   (89.0727385279 55.495145507 -0.0226695268961)                   (89.2685390919 55.289310628 0.123231888438)                   (89.7336554571 55.5837909618 -0.10470417739)                   (89.4366188551 54.9999253106 -0.00133754472396)
    0.0105330407085                   (87.2880260777 55.7073672531 0.265300427643)                   (87.6452803915 55.1691409718 0.0470221433204)                   (87.6565719473 54.6896069959 -0.518103044672)                   (88.1670421586 55.0960479813 0.42925000269)                   (88.581351812 55.1343763273 -0.0148838348913)                   (88.6617206846 54.9713773199 0.245406149806)                   (88.9886525383 55.4262589918 -0.0966859220247)                   (89.011493922 55.30843269 0.0572832302146)                   (89.452414833 55.4944038078 -0.107077400856)                   (89.1892574135 55.0353163439 -0.101285891021)
    0.0105617900395                   (87.2930683793 55.3280550566 0.35453023149)                   (87.4857972196 55.3127336354 -0.016579382355)                   (87.7656013491 54.9703128626 -0.374822148849)                   (88.1148097335 54.9473914769 0.255255949544)                   (88.4753353258 55.0935389596 -0.0197444516467)                   (88.5664439778 55.008086311 0.0440028253888)                   (88.8137612262 55.3542713145 -0.17816850597)                   (88.7732661802 55.2714914262 -0.0465226737292)                   (89.0869376634 55.3779611048 -0.124530922561)                   (88.9348659415 55.1042450715 -0.135364850762)
    0.0105906155592                   (87.1302841398 55.2184609923 0.184952513348)                   (87.3329522126 55.3865170841 0.0598523986603)                   (87.76297057 55.0196845025 -0.244741537411)                   (87.981856786 54.8393742082 0.00345138571721)                   (88.3414152116 55.0755306355 0.0475532550866)                   (88.5449470183 55.020813308 -0.0924102729625)                   (88.5680982327 55.2870751793 -0.247879839772)                   (88.5431194678 55.1855971179 -0.119518189059)                   (88.7120672058 55.3047583074 -0.15586678946)                   (88.6422909997 55.1798893522 -0.114154638571)
    0.0106195004181                   (86.8012500161 54.9508783249 0.271655656226)                   (87.2434442936 55.1987217112 0.120865845116)                   (87.5924079563 54.7656312793 -0.203926325355)                   (87.8095467341 54.8752083926 -0.0891557338925)                   (88.1971957971 55.1513476628 0.129087384227)                   (88.4830166368 55.0244158891 -0.0941328156962)                   (88.3098090307 55.2238596424 -0.273056072661)                   (88.3187687436 55.1128046145 -0.124026090823)                   (88.3888136193 55.3193725463 -0.172445369808)                   (88.2945989461 55.2731515031 -0.0502427547998)
    0.0106484109533                   (86.6593525289 55.1738349001 -0.318962304138)                   (87.1098500691 55.1188569959 0.0957689214778)                   (87.4401380305 54.5426351977 -0.0998499426817)                   (87.6998850068 55.0204571602 -0.0616974393288)                   (88.0797405605 55.2628623105 0.110714748543)                   (88.3132620134 54.9953191418 -0.0394889683154)                   (88.0533019346 55.1365218555 -0.301508504537)                   (88.0620839914 55.0482575156 -0.106519345188)                   (88.1401480016 55.3403196769 -0.155499901951)                   (87.9270623768 55.3479580132 0.0146939447914)
    0.0106773875545                   (86.379030372 54.8234074426 -0.434884005854)                   (86.9347180095 55.1084807615 0.0550550877881)                   (87.3904502671 54.5459850893 0.0456947725569)                   (87.5780896668 55.0705402067 0.0573745387697)                   (87.9534247054 55.4243485222 0.0693888359607)                   (88.0552727238 55.0459782333 -0.0140421567015)                   (87.797383552 55.0642572967 -0.341447484972)                   (87.7482676236 55.0159768925 -0.138563870407)                   (87.8523777733 55.3231503804 -0.124969479143)                   (87.5860691627 55.358831397 0.0591751453212)
    0.0107064118482                   (86.1652828608 54.5728986689 -0.00811924552621)                   (86.8338824981 55.1246307673 -0.0204135754487)                   (87.2312264665 54.7308434596 0.0889279683185)                   (87.3486924299 54.9936388135 0.217554917302)                   (87.7712935602 55.5431419213 0.115769496445)                   (87.7180766916 55.1094202407 -0.0577494797448)                   (87.49036348 55.0600207324 -0.390989253092)                   (87.3623704495 55.0219103432 -0.155751249314)                   (87.4740327512 55.2689160062 -0.0493025588439)                   (87.2554222605 55.3725783131 0.092451586059)