# Probe 0 (0.00909091 0.05 0.02)
# Probe 1 (0.01818182 0.05 0.02)
# Probe 2 (0.02727273 0.05 0.02)
# Probe 3 (0.03636364 0.05 0.02)
# Probe 4 (0.04545455 0.05 0.02)
# Probe 5 (0.05454545 0.05 0.02)
# Probe 6 (0.06363636 0.05 0.02)
# Probe 7 (0.07272727 0.05 0.02)
# Probe 8 (0.08181818 0.05 0.02)
# Probe 9 (0.09090909 0.05 0.02)
#             Probe                   0                   1                   2                   3                   4                   5                   6                   7                   8                   9
#              Time
  2.17102420367e-05       5465.03333014       5470.51686624       5484.05311174       5497.95916178       5512.35313765       5526.31727924       5540.28387377       5553.91495669       5566.85229567       5578.17710443
  4.49313511324e-05       5487.16820331       5496.28129964       5505.93458446       5518.25718459       5530.15991869       5541.64496771       5553.45437771       5564.43629072       5574.20531744       5582.19560305
  6.87889873076e-05       5512.22817104        5524.1900968       5531.30948616       5539.40962093       5549.87754029       5558.97213306       5567.65809247       5575.51221273       5581.61984129        5585.9112598
  9.24433643179e-05       5528.11308136       5539.45251628       5555.01346508       5563.89208065       5569.24155486       5576.23480446       5582.37237953       5586.53722434       5588.94744704       5589.92196351
  0.000115985187459       5560.41785206       5568.58239774       5572.40593286        5582.7195935       5591.62123001       5593.66821769       5596.24385328       5597.34964967       5596.53876861       5594.00938037
  0.000139860088145       5583.99871433       5595.70277887       5604.30058178       5606.33658051       5607.93172846        5612.5967645       5610.89754645       5608.08358675       5604.25471048        5598.4038165
   0.00016415586076       5610.02447053       5616.38944526       5622.60366829       5628.65564794       5631.02117276        5627.9182027       5625.93789305       5620.17605974       5612.02979163       5602.68216793
  0.000188803013567       5635.72865908       5641.28197146       5643.86408342       5645.43846853       5646.65245245       5645.82541036       5639.62355647       5631.52949618       5620.73228452       5606.77792495
  0.000213703833321       5663.63767607       5670.32253712       5672.38003515       5669.96449323       5664.17140425       5658.23269294       5651.90375029       5641.79524027       5627.93564466       5611.55128898
  0.000238793112375       5692.90157116        5694.8115289       5695.95271633       5693.53862029       5687.78457767       5677.39354488       5663.60024867       5649.55799701       5634.04139266       5615.06913869
  0.000264062727353        5714.3004563       5715.03124595       5713.63784876       5708.78958462       5701.85974618        5692.9605306       5679.38041637       5660.31334836       5639.03114268       5616.99071435
  0.000289439194702       5738.90884634       5736.76148498       5734.11079881       5726.72218241       5715.87297499       5703.25820895       5687.65219838        5669.5883871       5646.53777237       5619.50064135
  0.000314882879974       5760.29667677       5758.52362733       5752.97229085        5743.5780093       5730.72688641       5714.98593177       5695.74229202       5673.91219084       5649.97341998       5623.95899593
  0.000340394947013       5780.05169661       5776.47728359       5768.95250405       5759.81579198       5744.78235326       5726.60725485       5704.07798481       5678.63210129       5651.77749744       5624.22070997
  0.000365964444433       5797.13549842       5792.74327692       5782.74268358       5771.02409228        5754.5905043       5735.95783456       5712.55673766       5685.15711906       5655.50578005       5623.31473804
  0.000391534892186       5810.53723351       5803.30067756       5792.40662762       5778.61865615       5760.20555006       5739.47635031        5715.0833001       5688.64096681        5658.5196137       5627.09509908
  0.000417081717913       5820.06074238       5811.34245166       5799.73611255        5783.6495905       5764.67404078       5742.52061098       5716.43071282       5687.93439773       5658.38243685       5628.51860551
  0.000442608756378       5825.38459279       5817.50598015       5804.79293786       5787.11234951       5767.29689589        5744.3332777        5717.8206741       5688.58884407       5658.94327578       5626.17010734
  0.000468098494245       5829.51820148       5821.27062445       5807.10346942       5787.97199129       5766.89583132       5743.52541135       5716.68364412       5689.08794208        5658.2231286       5625.98575864
  0.000493529555197       5832.41646015       5820.02357447        5804.2541171       5785.23175714       5763.88849434       5740.43618048       5714.34141991       5686.00391104        5655.7595016       5625.28325591
  0.000518882220633         5827.270477       5815.70500383        5800.7208742       5780.40610386       5759.19833267       5736.64831585       5711.00196984       5682.48516482       5653.29927428        5623.3199489
  0.000544150598002       5822.06559432       5810.05639674       5794.15571733        5774.9099166       5752.69588341       5730.39933454       5704.71452922       5677.83764527       5649.83224338       5621.42231019
  0.000569352970121        5814.6312197       5800.01156058       5784.10373623       5765.00433797       5744.51264618       5722.03661934       5696.60280063       5670.80799509       5644.59071226       5618.14965845
  0.000594477456061       5800.99796175       5788.87291866       5771.62953848       5753.42063271       5732.45010641       5711.43177979       5688.17668321       5663.36965398       5638.50363811       5614.69965588
  0.000619515572853       5787.85025031        5774.2049651       5758.71414801       5740.60082654       5720.19108114       5699.67360765       5677.39235783       5655.29296887       5633.05884042       5611.66607965
  0.000644472310557       5767.60716269        5757.2202949        5742.4843479       5725.38483598       5706.37137656       5687.47234369        5667.1169563       5646.24403806       5626.90373304       5608.73301238
  0.000669359049035       5753.07277301        5738.3998658       5723.91342552        5708.0182423       5690.35020364       5673.01088816       5655.36127582       5637.84141296       5620.80265919        5605.0215917
  0.000694194795293       5730.56524938       5719.38345307       5705.71570431       5689.80030203       5673.50992396        5657.2865573        5641.7133321       5627.11399772       5613.77211525       5600.98366464
  0.000718976102697       5708.97547752       5697.84475075       5684.21551448       5670.47387079       5655.70654049       5641.60522812       5628.42142935       5616.14860982       5604.77049127       5596.08549318
   0.00074370886909       5686.73079537       5674.43451076       5662.51104048       5649.63511097       5636.92561725        5625.4118689       5614.66345335       5605.06485186       5597.07619107       5591.48651317
   0.00076842360686       5663.24224061        5652.0932299       5640.89493729       5628.90146778       5618.26042881       5609.13875158       5599.88045878        5593.7536792       5589.61448393       5587.93168093
  0.000793132062876       5636.00202574       5627.20665394       5616.35999894       5607.11689459       5599.09119888       5591.93663603       5585.07274545       5582.96041169       5582.39698794        5584.2755599
  0.000817853037546        5613.0233337       5602.22512816       5593.17216529       5585.64692601       5578.69422186       5573.89926576       5570.73696142        5572.0959913       5575.46882726       5580.41019306
  0.000842613075245        5588.1014287       5578.12775294       5570.52679043       5564.62807477       5560.02993187        5557.9520312       5557.80498249       5561.35750608       5567.91140937        5576.3257709
  0.000867425993556       5560.05426228       5553.62173636       5548.32185971       5543.30188999       5541.42310255       5542.78042789        5546.0915828       5551.41247661       5560.86321079       5572.29882733
  0.000892322414456       5534.05767095        5529.8425049       5525.01112819       5523.24336608       5524.52127974       5527.67819429       5533.70984723       5542.14146011       5554.75740969       5569.34270699
  0.000917326757228       5512.15286085        5506.2226936       5504.11309853       5505.13388544        5508.6291015       5514.43330474       5523.19976629       5534.16187201       5549.18648678       5566.95781551
  0.000942454462413       5487.48633015       5484.58357513       5484.93963308       5487.73557277       5493.17258832       5501.64386123       5513.69889212       5528.00084666       5544.98945679       5564.62813313
  0.000967729885561       5465.27691479       5464.05345064       5466.18125049       5471.05786229       5479.24382731       5490.11941899       5504.26596405       5521.45167247       5540.85870448       5562.64658551
  0.000993176914595       5446.11895465       5445.27439455       5449.11830973       5455.75689843       5466.41243619       5479.67289104       5496.43192916       5515.80449496       5536.70163448       5560.37962493
   0.00101881500861       5427.58208754       5428.72897686       5433.43459264       5442.50528494       5454.86492285       5469.88970813       5488.98143636       5510.52391627        5533.6623141       5558.67172729
    0.0010446629119       5410.29803175       5413.15235558       5419.78223267        5431.0978815       5445.27950763       5462.21268939       5482.60650396       5505.76462378       5530.87888354       5557.35249363
   0.00107073887984       5396.91469154       5400.91321779       5410.03788095       5421.82046399       5437.80748416       5456.43911433       5478.70162443       5503.12527796       5529.07315575       5556.34407905
   0.00109705515075       5384.64337547       5391.67331246       5400.67428182       5414.47533528       5432.25079655       5452.00588805       5475.73816679        5501.4883151       5528.51157662       5555.86107331
   0.00112362334623       5376.87789203       5383.04130732       5394.74096147       5409.85369648       5428.30592898       5449.68171563       5474.02060783       5500.26842568       5527.75273528       5555.89312008
   0.00115045072968       5369.77787751       5379.06958431       5391.84554388       5408.51561175       5428.85673885       5450.18444572       5474.69134845       5500.74658779       5528.12626184        5556.1819646
   0.00117754423213       5369.45442022       5378.82860802       5392.55035432        5409.9158581       5430.29708219         5452.337681       5476.87828445       5502.87788442       5530.11825126       5557.25390012
   0.00120489673056       5369.42278157       5380.69189657       5395.65513565       5413.42265563       5434.05564253       5455.49935431       5479.94810285        5505.9744655       5532.32315053       5559.16726475
   0.00123249480925       5376.12989947       5387.63034889       5402.04818454       5419.90642964        5439.7619898       5461.07214901       5485.04139873       5509.95209097       5535.68697732       5560.95895018
   0.00126045076471       5385.25373326       5395.65404121       5411.23156383       5428.45548569       5447.98140305       5468.90227958       5491.64172754       5515.56204754       5539.47579427         5562.855627
   0.00128897487086        5395.9230048        5408.5198559       5423.14531103        5439.7238856       5458.90723595       5478.30477905       5500.00806698       5521.92961103       5543.61592727       5565.20374557
   0.00131812794953       5411.78285568       5423.81671006       5438.07295215        5454.6220145       5472.42233613       5490.71156138        5510.2253216        5529.7098464       5549.39855652       5568.30357189
   0.00134735363093       5432.24579278       5443.22397713       5456.30690655       5471.49287626       5487.69409255       5504.10418694       5521.31880932       5538.77338649       5555.66103474       5572.02183076
    0.0013766062126       5454.19302731       5465.16026313       5477.65644731       5491.15114673       5505.24870321       5519.25150273       5534.08120472       5548.71325909       5562.86620964       5575.68483377
   0.00140592149558        5475.9414917       5487.58963227       5499.58263627       5511.83232345        5524.5052526       5536.38661851       5548.48681981       5560.04283738       5570.51794481       5579.93738008
   0.00143521465422       5503.44665097       5512.45474107        5522.9427722        5533.6344327        5544.0124857       5553.73203529       5563.30466741       5571.52918044       5578.64508749       5584.39208487
   0.00146447194289       5531.29833244       5540.52783456       5549.44633585       5557.79755154        5565.6981446       5572.38660494       5578.15094199       5583.18305752       5586.85392476       5588.81768789
   0.00149384619769        5557.9173082       5566.29153815       5574.16918058       5581.25490902       5587.16076436       5591.57607331        5594.6622282       5595.81359492       5595.29792356       5593.36569972
   0.00152322915379       5587.54466063       5593.81967987       5600.23352975        5604.7083135       5607.91829183        5609.6904856       5609.85758708       5608.07525942       5604.21335701       5598.20762201
    0.0015525949512       5616.53996891       5622.26938027       5626.27447506       5628.69302063       5629.67220063       5628.30900525       5624.86413761       5619.45271108       5612.05855824       5602.59086938
   0.00158201387851       5644.62924092       5648.78222171       5651.37666943       5651.87021249        5649.6720793       5645.76374732       5639.45664585       5630.58314915       5619.41795852       5606.27006582
   0.00161141360855       5672.71814334       5673.55003483       5674.20990872       5672.34316467         5668.107815       5661.48208136       5651.98378584       5640.26481739        5626.1605651       5609.88854309
   0.00164076648109       5696.53938095       5699.25800167        5697.6977467       5693.04922568       5685.46917707       5676.19526673       5663.95403122       5649.00767278       5631.88325295       5612.91970722
    0.0016701954368       5720.98472002       5720.83682208       5717.58999764       5711.77410977       5702.31147976       5690.32892553       5675.06808973       5657.46553324       5637.52765383       5615.73699714
   0.00169944058492       5744.79007219       5741.09981488       5735.00155109       5727.04031899       5715.97994851       5702.24185813       5684.80279904       5664.72991305       5642.62589879       5618.77346562
   0.00172878023701       5762.43893082       5758.32547761       5751.55602838        5740.0197163       5725.99745664       5710.64123505        5692.0257231       5670.47774292       5646.57688893       5620.60445845
   0.00175814383379       5775.34934541        5770.1936547       5762.33206317       5751.56091171       5736.61662235       5718.41775404       5697.13937434       5674.11756311       5648.87376818       5621.64437774
   0.00178730419845       5788.89075486       5782.31021831       5771.59270908       5758.00090948       5741.68813929       5723.74925512       5701.89861559       5676.91564997        5650.1415945       5622.31601448
   0.00181655137119       5795.47516868       5788.19192697       5778.15159321       5763.53699514       5745.36183263       5725.40466837        5702.4719222       5677.61672447       5650.75905869       5622.35601893
   0.00184573320945       5798.74994224        5791.4500094       5779.13799466       5763.76023804        5745.9365053       5725.77878862       5702.11170872       5676.34554517       5649.31098477       5621.42781534
    0.0018747392974       5801.64086033       5791.88369919       5778.42381521       5762.12328533       5742.88277585       5722.37236893       5699.09380373       5674.06345599       5647.49221113       5620.24532608
   0.00190350455321       5798.80306498        5787.8607125       5774.51922249       5757.41664938       5737.90189791       5717.29885189       5694.11002885       5669.54162688       5644.25294424       5618.59289015
   0.00193203463475       5791.80601898       5780.31136985       5766.37793398       5749.85981267       5730.95603918       5710.67134443       5687.92679787       5664.35550425       5640.25085083       5615.98217738
   0.00196035111291       5781.57224329       5769.84331121       5756.08054223        5739.5575916       5720.84111595       5701.69440185       5680.34685428       5658.09850988       5635.56949583       5613.40421624
   0.00198848170667       5768.00096436       5757.37637251       5743.32264824       5726.80400065       5709.06462457       5690.66064941       5670.86191903       5650.72620683       5630.32439231       5610.39562721
   0.00201645850297       5754.84370713       5742.62979702       5728.93738953       5713.55563536       5696.35433027       5679.04861555       5660.62633522       5642.05756135       5624.18593778       5607.09717014
   0.00204432811656       5735.66593426       5724.51483033       5711.11210998       5696.49471088        5681.1543774       5665.80656462       5649.30878796       5633.11216755       5617.56354191       5603.36731443
   0.00207209975738       5715.59514565       5705.39770645       5692.69018593       5678.88983888       5664.20774503       5650.32015576       5636.24305563       5622.79105368       5610.53776484       5599.42132639
    0.0020998132419       5694.98093859       5683.99039916       5672.51236091       5660.30439167       5647.78755706       5635.27789059       5623.02317961       5612.36424204       5602.98696658       5595.20002463
   0.00212751326903       5672.08608782       5661.86439245       5651.20170535       5639.73646113       5628.78732132       5619.29294323       5610.30716201       5602.20742499       5595.63876583       5591.34864273
   0.00215520196908       5646.76510438       5637.78602038       5628.24486934       5618.83603265       5609.76930844       5602.33686695       5596.10887818       5591.32619739       5588.44599338       5587.45470172
   0.00218290685778        5623.9084339       5614.77884736       5606.06351669       5597.87529976       5591.08766774       5585.86093659       5581.67244108       5580.02817533       5580.71766855       5583.28033993
   0.00221065669043       5596.19834884       5589.65006805       5582.45350636       5576.74290063       5572.51223782        5569.5251515       5568.64335101       5569.82542439       5573.17950763       5579.22903612
   0.00223848531975       5572.05182974       5563.96339492       5559.38329762       5555.86149654       5553.47217365       5553.47022886       5555.90153506       5560.42016702       5567.22690936       5576.08832678
   0.00226640451825       5545.88931019       5541.74425949       5538.07720644       5536.10400156       5536.55692717       5538.98184199       5543.74964977       5551.30770106       5561.33639686       5573.35221876
    0.0022944026979       5524.30033106       5519.50762854        5517.4725757       5517.16823285       5519.80438739       5525.06430748         5533.066105       5543.27183929        5555.6548779       5570.10478444
   0.00232250874359       5498.22776893       5497.24216874       5497.03531701       5500.02991838       5505.15978575       5512.38108531       5522.80800067       5535.96965016       5551.01470786       5567.73783833
   0.00235075990656       5479.51008107       5477.21366818       5478.76722506       5483.86369335       5491.32751499       5501.60693466       5514.44014771       5529.34090249       5546.62595824       5565.79040424
   0.00237917966042       5459.37994742       5459.40100764       5462.91492715       5468.76186393       5478.84509126       5490.83952905       5505.99416671       5523.68685021       5542.96819216        5563.4839045
   0.00240778578876       5440.54726822       5443.26820646       5448.12720554       5457.01885083       5468.20226826       5481.68794396       5498.93911463       5518.12727854       5539.22000704       5561.89075362
   0.00243655638178        5427.0792545       5429.87662898         5436.794526        5446.7467968       5459.90844764       5475.61168433       5493.85377452       5514.47997525       5536.85166392       5560.55439967
   0.00246544545595       5413.13594231       5418.31230588       5427.71520168       5439.19541238       5453.88079753       5470.43159728       5490.41086606       5512.38170669       5535.81256421       5560.33064042
   0.00249445813187       5405.32771113       5410.27923492       5419.47436668       5432.65594344       5449.38418697       5467.48027584       5488.34035342       5510.99298727       5535.20559299       5560.12798143
   0.00252349611105       5399.34424627       5406.34528973       5416.87988991       5430.26035858       5446.69488642        5465.5976958       5487.63607192       5511.15105508       5535.42255125       5560.15384346
   0.00255249176933       5395.17778117       5404.50304465       5416.65497453       5431.82472613       5449.28469303       5467.74321829       5489.12477515       5512.47611139       5536.74598438       5561.28847494
   0.00258152392531       5398.62459884       5407.02418295        5418.5966074        5433.7646136       5451.92929829       5471.72745829       5493.61108753        5515.9195926       5538.99891737       5562.43733347
   0.00261067444533       5401.09465837       5410.40698334       5423.81596635       5439.47004171       5457.02684862       5475.75767743       5497.02188796       5519.47257546       5541.90828447       5563.89634844
   0.00263980444396       5408.73297966       5419.67320873       5432.12167184       5447.42708779       5465.23814337       5483.52280933       5503.18041775       5523.56973257       5544.60088182       5565.79437371
   0.00266896617034       5420.42416832       5430.13942547       5443.43537036       5458.41838585        5475.1463451       5492.12063064       5511.09036207       5530.36056456       5549.40694158       5568.03520311
   0.00269815298247       5434.31233766       5444.84563631       5457.22929002        5471.3408506       5486.74849262       5502.48846701        5519.6188499       5536.98353853       5554.29918852       5570.97487262
   0.00272735003484       5449.76024255       5460.48690623       5473.10104123       5486.36206936       5500.45776087       5514.85023861       5529.86325042       5544.94869449       5559.68580519       5573.99189738
   0.00275657921395       5468.78051248       5479.18398181       5489.74969402       5502.51372443       5515.80563977       5528.43826477       5541.57990297       5554.43047524       5566.76007518       5577.87696631
    0.0027858894332       5489.76354453       5499.67719286       5510.67250462       5521.11177555        5531.9575053       5542.55525604       5553.51097226       5564.02367211        5573.3965494       5581.38989469
   0.00281522260286       5512.98237262       5521.88493204       5530.57028663       5540.16802543        5549.5054884        5557.9043158       5566.36232887       5573.53181191       5579.42868661        5584.4090758
   0.00284455316894        5536.7181035       5545.60492811       5552.86646844       5560.38087705       5567.64656316       5574.28731037       5579.57777354       5583.67813392       5586.81569619        5588.8158915
   0.00287380165671       5561.69650258       5568.15911969       5575.55820135       5582.09194734       5586.99058614       5590.34548858       5593.00072786       5594.55654532       5594.78837877       5593.24040625
   0.00290302546432       5588.77865189       5593.59165845       5598.13864516       5601.99064945       5605.26793656       5606.72750773       5606.59780593       5605.08252022       5601.88372722       5596.68474948
   0.00293234971975       5611.37758837       5616.89576066       5620.96680136       5623.05155173       5623.13651074       5622.20435197       5619.92846241       5615.29440281       5608.32376549       5600.09002015
   0.00296176449125       5635.39771729       5640.27128244       5642.49804464       5643.10305202       5641.70208212       5638.29565646       5632.35573672       5624.61500333       5615.34582095       5604.22181257
   0.00299124526061       5661.23042061       5663.81455366       5663.60604447       5661.85892632       5658.34772269       5652.55064738       5644.27560586       5633.82961605        5621.5373893       5607.43331862
   0.00302064204151       5684.03452061       5684.74088509       5683.13588791       5679.62816795       5673.41874399       5665.36024448       5654.87984246        5642.0452413       5627.02978587       5610.03008235
   0.00304989776909       5703.19716326       5703.62537218       5701.20213808       5695.50578694       5687.17254768       5676.90697349       5663.87991452       5648.90333733       5631.62740141       5612.66526725
   0.00307920989949       5721.50534685        5721.4395688       5716.66397143       5709.32759261       5699.64621075       5687.58673715       5672.47982652       5654.80213603        5635.4344324       5614.65650025
   0.00310845471281       5739.93273562       5735.31520835       5728.98644703       5720.49713107       5708.81119046       5695.19315375       5678.58724108       5659.68448261       5638.80709577       5616.23559046
   0.00313772019254        5751.9659067       5747.48764386       5740.12422293       5729.42048734       5716.30989207       5701.23412493       5683.02276769       5662.84810426        5640.8941582       5617.40065382
   0.00316695307306       5760.58255833       5756.59284815       5748.66854215       5737.28672041       5722.51789496       5705.92916705       5686.68475648        5665.3986319       5642.27794811       5617.94043264
   0.00319611584062       5769.54341253       5762.60974678       5752.62605687       5740.33509204        5725.4394549        5708.6964954       5688.61634574       5666.45305265       5642.82833141       5618.17487038
   0.00322512653775       5773.07514346       5766.10725425       5755.83823668       5741.93602191       5725.46990327       5707.87675907       5687.59558537       5665.58203838       5642.11176001       5617.58570217
    0.0032540936848       5773.80195516       5764.74056318        5753.7718045       5740.54172316       5724.28854727       5706.13788944       5685.28732546        5663.1537433       5639.98231126       5616.26201467
   0.00328295241781       5772.50881539       5763.77785111       5751.62992994       5736.01421966       5719.28036941       5701.66218134       5681.67668729       5660.07532824        5637.5702424       5614.80893534
   0.00331160137832       5766.80167985       5757.40038759       5744.66753943       5730.78444568       5713.39572159       5695.29280125       5675.51361655       5654.99355397       5634.09083537       5612.97573543
   0.00334006077925       5757.54783319       5747.33541401       5735.68778258       5720.85831419       5704.75669632        5688.0019552        5668.7531922       5649.15749359       5629.38519394       5609.92451084
   0.00336838065555       5746.18995746       5737.42782503       5724.40482745       5710.36965481       5694.77519588       5678.44781971       5661.14647266       5643.01529032       5624.84336504       5607.56636355
   0.00339660393402       5735.43259957       5723.61667847       5711.84372013       5698.02433998       5682.83521555       5667.81135032       5651.55403853       5635.49551063       5620.12809599       5605.25456471
   0.00342472076707       5717.35668953       5708.24756991       5696.40811911       5683.12428676       5669.26659843       5655.35627542       5641.00038508       5627.24136475       5614.06071132       5601.50120671
   0.00345274325975        5699.9064972       5689.11175475       5678.09048941       5666.61859139       5654.11232914         5642.238541       5630.14311545       5618.55316154        5607.5093052       5597.85942601
   0.00348069957803       5681.51166203       5671.52184899       5661.69998661       5650.17124145       5639.23556708       5629.06807666       5618.92077654       5609.36423693       5601.16718464       5594.66793091
   0.00350862609239        5659.2145453       5651.35666207       5642.41364599       5632.93764962       5623.61362538       5615.10484032       5606.93259023       5600.11016057       5594.90542778       5590.91676768
   0.00353654553674       5640.89460634       5631.25638919       5621.85505889       5614.26640477       5606.83714809       5600.36002426       5594.67681062       5590.68503997       5587.97881437        5587.3797875
   0.00356447310267       5618.26641311       5609.32396012       5603.59424343       5596.38659665       5590.13127695        5585.7202001       5582.78270982       5581.14341494       5581.60764282       5584.02814792
    0.0035924301824       5595.59520889        5589.4391103       5583.38036925       5578.09293581       5574.59699235       5572.15373062       5571.17556054       5572.43302652       5575.85575108       5580.92316087
   0.00362042322097       5573.24775504       5567.23832372       5562.34792615       5559.59902917       5557.97464559        5558.2382375       5560.40191453        5564.5157921       5570.29406571       5577.98726957
   0.00364847635432       5549.93552011       5545.88580641       5543.25090236       5542.04997477       5542.20869843       5544.61540886       5549.49147612       5556.32012108       5564.91787918       5575.18548227