# Probe 0 (0.00909091 0.05 0.02)
# Probe 1 (0.01818182 0.05 0.02)
# Probe 2 (0.02727273 0.05 0.02)
# Probe 3 (0.03636364 0.05 0.02)
# Probe 4 (0.04545455 0.05 0.02)
# Probe 5 (0.05454545 0.05 0.02)
# Probe 6 (0.06363636 0.05 0.02)
# Probe 7 (0.07272727 0.05 0.02)
# Probe 8 (0.08181818 0.05 0.02)
# Probe 9 (0.09090909 0.05 0.02)
#             Probe                   0                   1                   2                   3                   4                   5                   6                   7                   8                   9
#              Time
  2.17102420367e-05      0.065414319746     0.0654127583061     0.0656838983973     0.0661168236569     0.0666276773999     0.0671231713762     0.0675558536481     0.0678302103863     0.0679264592269     0.0678264986532
  4.49313511324e-05     0.0656330043685     0.0656262880596     0.0658247485041      0.066217786853     0.0667031079785     0.0671841508303     0.0676204155772     0.0679023953535     0.0680081979702     0.0679148865201
  6.87889873076e-05     0.0658834323651     0.0658659482961     0.0660023898934     0.0663280510274     0.0667943052707     0.0672579246308     0.0676867657391     0.0679709924092     0.0680837487249     0.0679947494248
  9.24433643179e-05     0.0660772766353      0.066000599354      0.066168999204     0.0664737793977     0.0668831316696     0.0673294955936     0.0677510340143     0.0680317524279     0.0681513614382     0.0680692638696
  0.000115985187459     0.0664142600542     0.0662715468334     0.0662961600897     0.0665720245644     0.0669969739738     0.0674013630009     0.0678021124467     0.0680844811513     0.0682139557107     0.0681367168594
  0.000139860088145     0.0666904794479      0.066524426869     0.0665503359093     0.0667245225269     0.0670548284524      0.067481074739     0.0678550838607     0.0681301486944     0.0682698876578     0.0681997390706
   0.00016415586076      0.066958778425     0.0667466362685     0.0667019416252     0.0668616643169     0.0671729036353     0.0675275662113     0.0679048969629     0.0681819694037     0.0683188264207     0.0682545075938
  0.000188803013567     0.0672628210816       0.06701767943     0.0668918061855     0.0669629915135     0.0672264842673     0.0675919458225     0.0679413029301     0.0682200275225     0.0683682032476     0.0683003463063
  0.000213703833321     0.0675916688114     0.0673269092741     0.0671492608158     0.0671398396964     0.0673064378085     0.0676104610085     0.0679603586666     0.0682441369163     0.0683961432983     0.0683440122448
  0.000238793112375     0.0679458231489     0.0676032776763     0.0673712809961     0.0673126353052      0.067442109032     0.0676884540478     0.0679755157817      0.068239780522     0.0684068453004     0.0683678736916
  0.000264062727353      0.068234110588     0.0678428026144     0.0675588653758     0.0674285165962     0.0675026099527     0.0677306822547     0.0680208263629     0.0682563892141     0.0683990625147     0.0683692076315
  0.000289439194702     0.0685442770615     0.0681138692732     0.0677733152649     0.0675817451559     0.0675729905404     0.0677345875465     0.0679981808163      0.068248441278     0.0684034580051     0.0683679892857
  0.000314882879974     0.0688143171004      0.068371193005      0.067968234044     0.0677368484394     0.0676579842821     0.0677569261997      0.067973860261     0.0681937819409     0.0683627846315     0.0683724183446
  0.000340394947013     0.0690641182275     0.0685945729676     0.0681461649846     0.0678993829427     0.0677490413373     0.0677873704529     0.0679504173252     0.0681392221428     0.0683022872478     0.0683293684263
  0.000365964444433     0.0693005223458     0.0688122499833     0.0683278502069     0.0680320451124     0.0678160934045     0.0678055447678     0.0679282391682     0.0680986564532     0.0682519689412      0.068268637749
  0.000391534892186     0.0695147058007      0.069003370515     0.0685067485091     0.0681529075358     0.0678615711268     0.0677844846185     0.0678601280586     0.0680307983102     0.0681878534643     0.0682404732551
  0.000417081717913     0.0696830692711     0.0691799535637     0.0686773211326     0.0682639109208     0.0679092658737     0.0677687322956     0.0677921867008     0.0679310290663     0.0680928614963     0.0681825876624
  0.000442608756378     0.0698057124178     0.0693372282978     0.0688372783886     0.0683666185266     0.0679544356811     0.0677530929288      0.067732854865       0.06784615413      0.068000696543     0.0680878204752
  0.000468098494245     0.0699177454276     0.0694657745019     0.0689714860765     0.0684623037251     0.0679856986061     0.0677292655377     0.0676607202271     0.0677601743808     0.0678927740189     0.0680058725114
  0.000493529555197     0.0699957250362      0.069556220821     0.0690511255953     0.0684892554971      0.068003761482     0.0676991382983     0.0675877996595     0.0676441898337     0.0677692369756     0.0679117795422
  0.000518882220633     0.0699976886589     0.0696149633979     0.0691183267141     0.0685103920952     0.0680115211553     0.0676768797238     0.0675150065257     0.0675280315837     0.0676463173769      0.067801654555
  0.000544150598002     0.0699910127422     0.0696478372341     0.0691612340349     0.0685634650688     0.0680124155102     0.0676457903709     0.0674277980531     0.0674079982295     0.0675167253453     0.0676865225814
  0.000569352970121     0.0699720663462     0.0696339499973     0.0691717853767     0.0686043958525     0.0680031548485     0.0676100243681     0.0673382514737     0.0672771611296     0.0673744401399     0.0675549609077
  0.000594477456061     0.0698718915308     0.0695999318365     0.0691583526356     0.0686243270417     0.0679463506027     0.0675626688893     0.0672599015002     0.0671538787479     0.0672295236346     0.0674195220168
  0.000619515572853      0.069771133083     0.0695275591641     0.0691340699247     0.0686154945773     0.0679106143829     0.0675106531995     0.0671760560785     0.0670366597363     0.0670947900758     0.0672872077375
  0.000644472310557     0.0695978214364     0.0694258880321     0.0690717623916     0.0685764126274     0.0678824279216     0.0674583609006     0.0671101453289     0.0669260361346     0.0669612506413     0.0671576161848
  0.000669359049035     0.0694577500378     0.0693034809777     0.0689800350671     0.0685189909583     0.0678703287536     0.0673912061996     0.0670416094137      0.066835783029     0.0668391348995     0.0670257174553
  0.000694194795293     0.0692403134772     0.0691612502688     0.0688842935865     0.0684522337572     0.0678522764701     0.0673150886528     0.0669653529681     0.0667413930965     0.0667210293403     0.0668965545837
  0.000718976102697     0.0690227746002     0.0689899881357     0.0687513395417     0.0683728934419     0.0678171114691     0.0672483506162     0.0668958072921     0.0666606017913     0.0666010475758     0.0667673370312
   0.00074370886909     0.0687906783005     0.0687902140076     0.0686083157607     0.0682737625393     0.0677702862541     0.0671954470853     0.0668251919476     0.0665910223071     0.0665068499463      0.066651411466
   0.00076842360686     0.0685379894675     0.0685811867489      0.068456042198     0.0681656186097     0.0677164063793     0.0671627511371      0.066763685528     0.0665313437579     0.0664281683062     0.0665563915974
  0.000793132062876      0.068248481352     0.0683424868458     0.0682665952867     0.0680380852556     0.0676509121943     0.0671431791354     0.0667269009701     0.0664898359623     0.0663656980173     0.0664727330638
  0.000817853037546     0.0679879931681     0.0681008504699      0.068079551478     0.0679054572558     0.0675653990124     0.0671242056169      0.066702961126     0.0664613058738     0.0663199283544     0.0663992366654
  0.000842613075245      0.067700992057     0.0678558806649     0.0678881540496     0.0677646696952     0.0674844832876     0.0671142494963     0.0666983420412     0.0664423193542     0.0662831718009     0.0663358181669
  0.000867425993556     0.0673849181136     0.0675962264787     0.0676858846684     0.0676090447955     0.0673949786031     0.0670936627904     0.0667153260907     0.0664338793453     0.0662660851273     0.0662860242694
  0.000892322414456     0.0670830435436     0.0673333579044     0.0674627018962     0.0674556427299     0.0673138795377     0.0670612902418     0.0667241888385     0.0664253005574     0.0662732076939     0.0662592253063
  0.000917326757228     0.0668111279141     0.0670674782776     0.0672495966877     0.0673118231308     0.0672319582236     0.0670342803578     0.0667417796218     0.0664214466681     0.0663015345582     0.0662510770715
  0.000942454462413     0.0665156880202     0.0668101325623     0.0670440571636     0.0671639117841     0.0671412749233     0.0670010973922     0.0667629583936      0.066438874729     0.0663522882432     0.0662568861862
  0.000967729885561     0.0662387145972     0.0665577374264     0.0668340507172     0.0670114636693     0.0670511228642     0.0669702128466      0.066779566325     0.0664843342233     0.0664003759157     0.0662750089357
  0.000993176914595     0.0659834862406      0.066319428703     0.0666292061284     0.0668590782205     0.0669604939934     0.0669395913022     0.0668020398286     0.0665725297778     0.0664245043816       0.06629841142
   0.00101881500861     0.0657400928066     0.0660938039131     0.0664303396618     0.0667105043596     0.0668721331341     0.0669051630692     0.0668182906141     0.0666586142973     0.0664397717892     0.0663297585631
    0.0010446629119     0.0654951418471     0.0658722922492     0.0662449526582     0.0665686576023     0.0667909426648     0.0668786519129     0.0668346569113     0.0667349950876     0.0664758644509      0.066358773713
   0.00107073887984      0.065296435915     0.0656783671904      0.066088839263     0.0664397305678     0.0667182706632     0.0668577915942     0.0668642168022     0.0668094823847     0.0665553919908     0.0663956928862
   0.00109705515075      0.065120387463     0.0655109891066      0.065930059119     0.0663210418812     0.0666510249127     0.0668386055855     0.0668952645721     0.0668770652372     0.0666674701898     0.0664618721799
   0.00112362334623     0.0649795038692     0.0653492979482     0.0657958978743     0.0662218687489     0.0665874872088     0.0668282751934     0.0669304312774     0.0669380879995     0.0667801686671     0.0665570816539
   0.00115045072968      0.064853299663     0.0652242073954     0.0656838387129      0.066144076405     0.0665549124521     0.0668333804081     0.0669788039211     0.0670087391673     0.0668938427667     0.0666667242749
   0.00117754423213     0.0647836955457     0.0651407388101     0.0656001263768     0.0660849829916     0.0665221958876     0.0668415304693     0.0670298892733     0.0670895016775     0.0670089021069     0.0667994105344
   0.00120489673056     0.0647295982655     0.0650801770522     0.0655379270439     0.0660380064755     0.0665007993906     0.0668481466591         0.067078435     0.0671741409493     0.0671150842118     0.0669317615344
   0.00123249480925     0.0647401065642      0.065066694675     0.0655050399912     0.0660121088658     0.0664867686509     0.0668645721939     0.0671345030393     0.0672597907315     0.0672243905707     0.0670630716933
   0.00126045076471     0.0647910140322      0.065069242806     0.0654988000607     0.0659959575459     0.0664856542378     0.0668892925117      0.067192442878     0.0673496053089     0.0673325962638     0.0671854915569
   0.00128897487086     0.0648630767943     0.0651161531166     0.0655169682821     0.0659995777287     0.0665028860069     0.0669200610087     0.0672554999002     0.0674345214928      0.067438971685     0.0673020219578
   0.00131812794953     0.0649907228322     0.0651926458986     0.0655606649889     0.0660348298998     0.0665358317029     0.0669700930552     0.0673225909779     0.0675206941083     0.0675518868287     0.0674215935164
   0.00134735363093     0.0651671169254      0.065318652892     0.0656380797732     0.0660876203568     0.0665792856772     0.0670210636226     0.0673865402422     0.0676080049772     0.0676570704842     0.0675369498387
    0.0013766062126     0.0653721357316     0.0654763245942     0.0657526810366     0.0661638641278     0.0666399720698     0.0670809501265     0.0674571628188     0.0676936652003     0.0677590397998     0.0676432789085
   0.00140592149558      0.065583688819     0.0656471083571      0.065883559572     0.0662519361804     0.0667122805549     0.0671523113608     0.0675335380112     0.0677811539864     0.0678544026918     0.0677458605916
   0.00143521465422      0.065869994518     0.0658550468693     0.0660363148726      0.066359983105     0.0667864823353     0.0672200681644     0.0676054013043     0.0678578016464     0.0679439262164     0.0678410358902
   0.00146447194289     0.0661599531634     0.0661021581767     0.0662248553478     0.0664985790158     0.0668832282676     0.0672948709087     0.0676686064308     0.0679252344657     0.0680238421291     0.0679284450931
   0.00149384619769     0.0664482939853      0.066343008748     0.0664055203921     0.0666356452416     0.0669823824242     0.0673677548813     0.0677372555871     0.0679912089277     0.0680942267881     0.0680097066755
   0.00152322915379     0.0667724854367     0.0666124463925     0.0666107501902     0.0667772943858     0.0670806890637     0.0674291175224     0.0677865886051     0.0680420665012     0.0681571650805     0.0680848377319
    0.0015525949512     0.0671092482884     0.0669017328698     0.0668283698662     0.0669314910128     0.0671894360277     0.0674959086327     0.0678289254102     0.0680780840576     0.0682003235849      0.068144789349
   0.00158201387851     0.0674419561151     0.0671794924274     0.0670509467082     0.0670907016466     0.0672810257134     0.0675531468164     0.0678626832705     0.0681048823683     0.0682308754072     0.0681871955346
   0.00161141360855     0.0677699497736     0.0674548300824     0.0672687694764     0.0672379780193     0.0673654451677     0.0675966097011     0.0678758659739     0.0681125976556     0.0682474126094     0.0682168651568
   0.00164076648109     0.0680614110472     0.0677486319535     0.0675025182694     0.0673989194011     0.0674515569052     0.0676337549092     0.0678841656444     0.0681064134846     0.0682461594903     0.0682301848044
    0.0016701954368     0.0683760002835     0.0680169866401     0.0677137556844     0.0675539674962     0.0675438147254      0.067672821626     0.0678850620594     0.0680903091677     0.0682341477245     0.0682309863197
   0.00169944058492     0.0686809529486     0.0682820439805     0.0679184055276     0.0676930304416     0.0676206768411     0.0677004314994     0.0678742539969     0.0680590205998     0.0682067898248      0.068222766311
   0.00172878023701     0.0689257573049     0.0685248105327      0.068130895641     0.0678282761399     0.0676795841713     0.0677037076796     0.0678422883307     0.0680129283555     0.0681593664697     0.0681933562031
   0.00175814383379     0.0691285512539     0.0687238572395     0.0683049267397     0.0679641997612     0.0677591960541     0.0677109954389     0.0677969317099     0.0679490038549     0.0680900371902      0.068147503256
   0.00178730419845     0.0693278442221     0.0689309507621     0.0684778498648     0.0680725756522     0.0678058157154      0.067707661002     0.0677552332494     0.0678794801674     0.0680084901971     0.0680896055094
   0.00181655137119     0.0694717412247     0.0690765331956       0.06862891587     0.0681831025636     0.0678546975349     0.0676897214006     0.0676848147582     0.0677908781439     0.0679183474272     0.0680172441165
   0.00184573320945     0.0695656753348     0.0691957291651     0.0687338292796     0.0682565695224     0.0678896138608     0.0676755226307     0.0676147542024     0.0676877123474     0.0678083482236     0.0679279293697
    0.0018747392974     0.0696533783506     0.0692901431952     0.0688263514411     0.0683250086211     0.0679082579409      0.067642925327     0.0675315048012     0.0675794063422     0.0676930112871     0.0678282115104
   0.00190350455321     0.0696818156865     0.0693486608536     0.0688931801206     0.0683742523997     0.0679211933657     0.0676098175355     0.0674463103329     0.0674583713964     0.0675629705982     0.0677157965289
   0.00193203463475     0.0696563212024     0.0693639116717     0.0689171537163     0.0684039533379     0.0679271069467      0.067577009462     0.0673658271355     0.0673387799259     0.0674267797357     0.0675873609943
   0.00196035111291     0.0695887256388     0.0693394282341     0.0689168652744     0.0684157181056     0.0679159905596     0.0675368240756     0.0672886886973     0.0672193717554     0.0672886504655     0.0674558927046
   0.00198848170667     0.0694858534653     0.0692907489051     0.0688962023255     0.0684118989844     0.0678986534473     0.0674920096747      0.067209490098     0.0671024026206     0.0671542643424     0.0673204715398
   0.00201645850297     0.0693786519499     0.0692089945957     0.0688584682639     0.0684050294679     0.0678809262318     0.0674536560208      0.067137888885     0.0669895043338     0.0670232528918     0.0671876616356
   0.00204432811656     0.0692063791745     0.0690869832656     0.0687810071725     0.0683584115751      0.067850196049     0.0674118722227     0.0670699402202     0.0668903906587     0.0668998226783      0.067058144025
   0.00207209975738     0.0690150887451     0.0689497070624     0.0686873786567     0.0682961451541     0.0678098864136      0.067361232364     0.0670004238141     0.0667957153305       0.06678400527     0.0669347243801
    0.0020998132419     0.0688073848533     0.0687754148533     0.0685658812519     0.0682151804182     0.0677721640954     0.0673232686575     0.0669440352411     0.0667157633575      0.066676614998     0.0668178216066
   0.00212751326903     0.0685773145662     0.0685756232734     0.0684255214386     0.0681124437735     0.0677074277207     0.0672828147894     0.0669045055747     0.0666518644331     0.0665854469616      0.066713059218
   0.00215520196908     0.0683023046511     0.0683541537609     0.0682614962154     0.0679997974792     0.0676357251526     0.0672379767977     0.0668626695484     0.0665949919827     0.0665104993356     0.0666184156863
   0.00218290685778     0.0680396552334     0.0681342163815     0.0680890298164     0.0678788143932     0.0675596220111     0.0671971769201     0.0668262546118     0.0665475217407     0.0664457233382     0.0665335018214
   0.00221065669043     0.0677409909807     0.0678883170946     0.0678879660952     0.0677470128504      0.067479493081     0.0671562447014     0.0668080913005     0.0665208990131     0.0663975729116     0.0664630866718
   0.00223848531975     0.0674742103759     0.0676250452179      0.067680703716     0.0676091438681     0.0673902226983     0.0671160290537     0.0667975873589     0.0665108678704     0.0663768751174      0.066415292923
   0.00226640451825     0.0671723780654     0.0673759136319     0.0674803799414     0.0674655343574     0.0673138316696     0.0670840417604     0.0667959106899     0.0665127412901     0.0663691931941     0.0663866629043
    0.0022944026979     0.0668997489285     0.0671221842173     0.0672739064102     0.0673133094772     0.0672287503387     0.0670482681429     0.0668059365559     0.0665340325203     0.0663759243231     0.0663703753346
   0.00232250874359     0.0665923424942     0.0668642064627     0.0670598608662     0.0671649933834     0.0671496277177     0.0670171248895     0.0668154964644     0.0665703560588     0.0664036174608     0.0663775368386
   0.00235075990656     0.0663456905076     0.0666224827151     0.0668567850832     0.0670159734057     0.0670634050166       0.06699391616     0.0668353228558     0.0666167958801     0.0664442650191     0.0664010882369
   0.00237917966042     0.0660773765419     0.0663895852359     0.0666665126194     0.0668672089118     0.0669755828627     0.0669607056576     0.0668470971137     0.0666703019151     0.0665004228362     0.0664339784563
   0.00240778578876     0.0658269675686     0.0661626110335     0.0664752924983     0.0667378340111     0.0668914132067     0.0669306311754      0.066864799356     0.0667214862601     0.0665618952388     0.0664840402719
   0.00243655638178     0.0656363439482     0.0659639163612     0.0663077625623     0.0666082394629     0.0668154184586     0.0669154875992     0.0668923268343     0.0667845477816     0.0666390416878     0.0665450196165
   0.00246544545595     0.0654382752873     0.0657800938996     0.0661568233179     0.0664913019179     0.0667495779087     0.0668962704046     0.0669254911879      0.066854692145      0.066728876051     0.0666222675939
   0.00249445813187     0.0652987401724     0.0656257745162     0.0660108024113      0.066377236602     0.0666876458047     0.0668850404496     0.0669615965752      0.066923671922     0.0668212815622     0.0667051433318
   0.00252349611105     0.0651827652054     0.0655118551778     0.0659076295246     0.0662977007221     0.0666356657923     0.0668720106033     0.0669984203722     0.0669976273176     0.0669187425446     0.0667949420919
   0.00255249176933      0.065083000455      0.065419442709     0.0658237763956     0.0662454034803     0.0666206702074     0.0668837099063     0.0670440012652     0.0670732817754       0.06701917646     0.0668965826553
   0.00258152392531     0.0650606527851     0.0653591932007     0.0657589923077     0.0661879942278      0.066593339095     0.0668991896448     0.0671042834321      0.067160031858     0.0671201703096     0.0669981773717
   0.00261067444533     0.0650524632929     0.0653154223962     0.0657191051378     0.0661583682699     0.0665765713039     0.0669079806642     0.0671438712098     0.0672390466346     0.0672194235277     0.0671010755283
   0.00263980444396     0.0650885027008     0.0653329996164     0.0657102912495     0.0661472479347     0.0665778022619      0.066940434937     0.0671975086122     0.0673148420553     0.0673104175427     0.0672040502947
   0.00266896617034     0.0651672043106      0.065368661133     0.0657299122478     0.0661615060382     0.0665900041491     0.0669697700379     0.0672547251101     0.0674034764885     0.0674138317005     0.0673062683795
   0.00269815298247     0.0652793594118     0.0654546615248     0.0657763002106     0.0661918850824     0.0666151970992     0.0670043927984     0.0673085831476     0.0674797735489     0.0675103556607     0.0674098629471
   0.00272735003484     0.0654178174458      0.065555201887     0.0658460845685      0.066243482793     0.0666600249397     0.0670504083074     0.0673686870455     0.0675578852035     0.0676036219317     0.0675085515215
   0.00275657921395     0.0655946774519     0.0656953216986     0.0659296151175     0.0663058106854     0.0667195175546      0.067103181353     0.0674342567514      0.067639383051     0.0677012386509      0.067608860359
    0.0027858894332     0.0657994382069     0.0658511707453     0.0660550885652      0.066387598439      0.066782619916     0.0671576482346     0.0674941711491     0.0677122646905      0.067784596739     0.0676979035865
   0.00281522260286     0.0660316759295     0.0660350047898     0.0661805788922     0.0664741034527     0.0668555519065      0.067219245387     0.0675546551839     0.0677759609094     0.0678537161646     0.0677743474853
   0.00284455316894     0.0662792192295     0.0662433983987     0.0663376672874     0.0665807331923     0.0669293396767     0.0672856640428     0.0676102633947     0.0678361211709     0.0679254149286     0.0678547689855
   0.00287380165671     0.0665435984047     0.0664506293119     0.0665087435338      0.066708679265     0.0670139171315     0.0673467243204     0.0676608039895     0.0678941219892     0.0679925737021     0.0679265007728
   0.00290302546432     0.0668431722502     0.0666958473966     0.0666902935218     0.0668278155159     0.0670943782567     0.0674085232701     0.0677074890102     0.0679412599867     0.0680427196757     0.0679820197937
   0.00293234971975     0.0671127250727     0.0669304539054     0.0668802110327     0.0669659262977     0.0671740859177     0.0674603398319     0.0677469934126      0.067977218267     0.0680785112336     0.0680292921898
   0.00296176449125     0.0673905640186     0.0671731817909     0.0670683020924     0.0671040480356     0.0672675015283     0.0675150644101     0.0677737966719     0.0679960856222     0.0681093116761     0.0680738769348
   0.00299124526061     0.0676973936668     0.0674331050165     0.0672680747058     0.0672401225656     0.0673507807423     0.0675532256704     0.0677893943117     0.0680056088912     0.0681234886626     0.0681004101334
   0.00302064204151     0.0679741796121     0.0676808697057     0.0674657084057     0.0673763342353     0.0674276167085     0.0675821245091     0.0677924389155     0.0680004558863     0.0681230675798     0.0681118445899
   0.00304989776909     0.0682282105631     0.0679182865982     0.0676617160951     0.0675063256694     0.0675014839584     0.0676053838879     0.0677851064527      0.067980365724     0.0681073472734     0.0681127589294
   0.00307920989949     0.0684646402376      0.068145571943     0.0678434135967     0.0676319133171      0.067572839897      0.067627903365      0.067779049312     0.0679498392902     0.0680772828934     0.0680968759734
   0.00310845471281     0.0687018306284      0.068343527626     0.0680050211309     0.0677520754046     0.0676291310095     0.0676344689552     0.0677535081641     0.0679099081101     0.0680364520953     0.0680671884072
   0.00313772019254      0.068891420357     0.0685371973186     0.0681697793603     0.0678652555037     0.0676833943016     0.0676383296515     0.0677154338384     0.0678554254391     0.0679781075997     0.0680254705377
   0.00316695307306     0.0690437077033      0.068701840731     0.0683208185879      0.067977903091     0.0677396532214     0.0676415288411     0.0676743001681     0.0677947419929     0.0679091588569     0.0679707941867
   0.00319611584062     0.0691876179328     0.0688400569256     0.0684355493827     0.0680571384205     0.0677800020032     0.0676388952316     0.0676240667018     0.0677197629706     0.0678293120786     0.0679064262027
   0.00322512653775     0.0692886002761      0.068950084798     0.0685498703994     0.0681344769963       0.06780988981     0.0676181264947     0.0675575457269     0.0676281777541     0.0677364411482     0.0678279976565
    0.0032540936848     0.0693391299593     0.0690215151432     0.0686221871075     0.0681922962921     0.0678403334114      0.067601125111     0.0674920192974     0.0675261689234     0.0676300372803     0.0677368716903
   0.00328295241781     0.0693798208496     0.0690920198879     0.0686912566202      0.068233032319     0.0678467830317     0.0675705687349     0.0674268954675     0.0674249829736     0.0675205983643     0.0676390694764
   0.00331160137832     0.0693540274715     0.0691051294197     0.0687123506624     0.0682719294398     0.0678538168076     0.0675367002091     0.0673525339718     0.0673172062727     0.0674019224266     0.0675337702168
   0.00334006077925     0.0692954933018     0.0690779507346     0.0687184848812     0.0682763245483      0.067845977535      0.067507879485     0.0672853915261     0.0672136520022     0.0672764708978     0.0674164417903
   0.00336838065555     0.0692177292025     0.0690429158507     0.0687051876289     0.0682732541772     0.0678386765109     0.0674709429124     0.0672219012149     0.0671182045179     0.0671599427253     0.0673063678717
   0.00339660393402     0.0691300625431     0.0689636025366     0.0686692553068     0.0682525440916     0.0678198161781      0.067433695081     0.0671532225057     0.0670232760739     0.0670517826629     0.0671997402356
   0.00342472076707     0.0689619323212     0.0688579659371     0.0685994006608     0.0682115989654     0.0677884683915     0.0673882640851     0.0670893957274     0.0669353804336     0.0669424141028     0.0670859085499
   0.00345274325975     0.0687984084635     0.0687123774878     0.0684968417022     0.0681521568267     0.0677414091292     0.0673484303492     0.0670364471628     0.0668559126983     0.0668389920473     0.0669784762584
   0.00348069957803     0.0686087788262     0.0685705622034     0.0684029173118     0.0680868043081     0.0676947269665     0.0673151561929     0.0669912052061     0.0667852408615     0.0667484043155     0.0668795010214
   0.00350862609239     0.0683845312108     0.0684002258197     0.0682720765466     0.0680066900813     0.0676394631233     0.0672765600355     0.0669470777062     0.0667273301993     0.0666705584434     0.0667820598634
   0.00353654553674     0.0681805183596     0.0682148861446      0.068121408428     0.0679080310876      0.067575188916     0.0672335397662     0.0669082364029     0.0666804563907     0.0665992649453      0.066696454026
   0.00356447310267     0.0679393328816     0.0680017371711     0.0679813134058     0.0678066704792     0.0675126440694     0.0671942420628     0.0668807198728     0.0666429146348     0.0665451184609     0.0666233337557
    0.0035924301824     0.0676786369264     0.0678028240668     0.0678115448795     0.0676929934618     0.0674566365544     0.0671650458384     0.0668616270725     0.0666207082714     0.0665085841798     0.0665644700919
   0.00362042322097      0.067426670614     0.0675762762477      0.067621958439     0.0675643805429     0.0673842983034     0.0671313249231     0.0668533715858     0.0666117626954     0.0664863063556     0.0665203108347
   0.00364847635432     0.0671611499633      0.067346253291     0.0674408247186     0.0674342995438       0.06730827559     0.0670973535684     0.0668466722347     0.0666075332032     0.0664775776676     0.0664911735774