# Probe 0 (0.00909091 0.05 0.02)
# Probe 1 (0.01818182 0.05 0.02)
# Probe 2 (0.02727273 0.05 0.02)
# Probe 3 (0.03636364 0.05 0.02)
# Probe 4 (0.04545455 0.05 0.02)
# Probe 5 (0.05454545 0.05 0.02)
# Probe 6 (0.06363636 0.05 0.02)
# Probe 7 (0.07272727 0.05 0.02)
# Probe 8 (0.08181818 0.05 0.02)
# Probe 9 (0.09090909 0.05 0.02)
#             Probe                   0                   1                   2                   3                   4                   5                   6                   7                   8                   9
#              Time
  2.17102420367e-05       290.391068117       290.689381108        290.20574137       289.036571436       287.571356696       286.171655804       285.057387242       284.602905816       284.861653031        285.86182959
  4.49313511324e-05        290.59574921        291.10816049       290.740215117       289.661346029        288.17406243       286.704912967        285.46222175       284.838931602       284.895088693       285.695460368
  6.87889873076e-05        290.81328231       291.521731441       291.294017969       290.288287506       288.806678557        287.28589473       285.911789282        285.11786427       284.957480481       285.549841225
  9.24433643179e-05       290.795747722        291.73076659       291.805731995       290.932068533       289.429452929       287.871692051       286.395469888       285.426510115       285.048499081       285.442055259
  0.000115985187459       291.010969148       292.065871269       292.157903914       291.485743731       290.098729122       288.463781711        286.89083468        285.75745759       285.173752452       285.367989483
  0.000139860088145       291.034677027       292.372664375       292.707895326       292.049832385       290.693908157       289.098021457       287.417505449       286.113539403       285.332962789       285.328252644
   0.00016415586076       291.219533829       292.476582217       292.996386504       292.611079173       291.377697609       289.687628125       287.976538786       286.512548597       285.524144544       285.317176125
  0.000188803013567       291.231445378       292.584753024        293.26949567       293.039456209       291.953662027       290.332573491       288.522384873       286.931178114       285.760371899       285.334126822
  0.000213703833321       291.249750266       292.740192118       293.621161388        293.53730857       292.511570528       290.890926646       289.069561584       287.352674164       286.009710071       285.394588602
  0.000238793112375       291.228705154       292.802561319       293.869719876       294.001093631       293.140122491       291.539680178       289.603195243       287.766423133       286.275208314       285.473831278
  0.000264062727353       291.088337257       292.804736215       293.963650048       294.282000179       293.602151733       292.156794717        290.21664986       288.244103794       286.561348651       285.565953719
  0.000289439194702       291.019034186       292.748387042          294.083473       294.537082891       294.017173188       292.668385823       290.736130472       288.750045833       286.924378191       285.698648756
  0.000314882879974       290.957338928       292.752939041       294.204671737       294.727598984        294.41092738       293.173517921       291.253843623       289.201873787       287.269771374       285.906792274
  0.000340394947013       290.899195408       292.709340807       294.251585556       294.853328911       294.736345337       293.637745039       291.780722102         289.6742094        287.61602339       286.100236876
  0.000365964444433       290.763716939       292.605033058       294.170676795       294.851016609       294.947639676       294.038371795       292.309842014       290.179813123       288.017936619       286.308619858
  0.000391534892186       290.537950091       292.326398856       293.892805757       294.715458089       295.037581754       294.310150628       292.732646184       290.647255204        288.44238311       286.619341225
  0.000417081717913       290.311015219       291.984280357       293.533826333        294.49238927       295.059083104       294.534701333       293.095108044       291.037970853       288.837768183       286.935243739
  0.000442608756378        290.06605453       291.630961663       293.107080693       294.226023673       294.997114169       294.695681827       293.423179151       291.435585112       289.257912725        287.21472069
  0.000468098494245       289.806762771       291.279671451       292.653181223       293.858448046       294.840956031       294.757897067       293.677592771        291.83098488       289.680848862       287.551395876
  0.000493529555197       289.627822507       290.838592928       292.172222648       293.603740971       294.608927957       294.730459246       293.873987309       292.172894512       290.082551384       287.913847841
  0.000518882220633       289.364164121       290.377551392       291.710472668       293.268330282       294.335614681       294.632850766       294.018910956       292.494355013        290.48324438       288.280834651
  0.000544150598002       289.133281424         289.9585917       291.199548685       292.762687176         293.9994276       294.447167531       294.075069201       292.775551826       290.862311523       288.673740045
  0.000569352970121       288.842267139       289.515017834       290.650019645       292.086149048       293.621191872       294.172999674       294.047419525         292.9817402       291.206159036       289.067539327
  0.000594477456061       288.578174052       289.100251911       290.079525464       291.414593405       293.249591856       293.833606352       293.954504374       293.134595038       291.519157133       289.470378635
  0.000619515572853       288.339923373       288.667892252       289.532063489       290.802690152       292.776453431       293.454615857       293.763392358       293.228386354       291.822489415       289.882890241
  0.000644472310557       288.046959712       288.240281165       288.976516446       290.197181113       292.190394016       293.053411833       293.519706796       293.243105464       292.084961659       290.290460088
  0.000669359049035        287.90050408       287.805459104       288.425008591       289.559396183       291.421984289       292.599551497       293.210278794       293.202104758       292.301326589       290.669248047
  0.000694194795293       287.674723985       287.441617142       287.907639005       288.916714749       290.636841051       292.118474546       292.835767568       293.058089906       292.452480871       291.020661863
  0.000718976102697       287.494163878       287.070000604          287.377419       288.269479018       289.875057424       291.597854848       292.449563435       292.841504781       292.509544664       291.328890128
   0.00074370886909       287.340171414       286.720797682       286.876895412       287.627118586       289.112089609       290.989786535       292.042988005       292.568946746       292.521713851        291.59575648
   0.00076842360686       287.208339971       286.462375795        286.41746258       287.026195719       288.384047327       290.289264011       291.542398228       292.240439144       292.477759298       291.826406951
  0.000793132062876       287.039336291       286.197183362       285.963077796        286.45129879       287.678332767       289.483363237       290.931768972       291.858640696       292.375057254       292.002502845
  0.000817853037546       286.964315049       285.937614878       285.564863884       285.911794098       286.993116521       288.631166943       290.289152358       291.415728277       292.213726202       292.123372119
  0.000842613075245       286.901300116       285.735521673       285.210517056       285.427678594       286.375902767       287.848071921       289.635328297       290.937229235       291.979461354       292.188632694
  0.000867425993556          286.800295       285.572979269        284.92253896        284.98827957       285.796588141        287.15041071       288.951326376       290.453859956       291.685047556       292.196961549
  0.000892322414456       286.743902168       285.460326243       284.664096563       284.602796777       285.268158221        286.50625998       288.267943313       290.006243058       291.333464989       292.160068448
  0.000917326757228       286.771321573       285.367863246       284.486022785        284.27574126       284.794134091       285.934925641       287.644607936       289.605493844       290.916938342       292.070877762
  0.000942454462413       286.756078332       285.341272649       284.364143045       284.001388127       284.378611347       285.413049891       287.058718028       289.207200332       290.474550755       291.923054009
  0.000967729885561       286.789696401       285.351170035       284.282098674       283.782410026       284.038912091       284.946535217       286.496344447       288.667053873       290.047953853       291.739303808
  0.000993176914595        286.88981726       285.392306606        284.26596642       283.633741809       283.757281922       284.534443536        285.99233817        287.98977761       289.725063397       291.517472247
   0.00101881500861       286.971888874       285.496429713       284.296320605       283.574975975       283.532007305       284.172602496       285.535209905       287.342508591       289.499481242       291.290203719
    0.0010446629119       287.127884323       285.634553198       284.375587664       283.583592084       283.377831598       283.886254633       285.133747872       286.765747927       289.196760186       291.093736693
   0.00107073887984       287.289229892       285.830204693       284.534839344       283.648530839       283.297222005       283.674667824       284.804702395       286.308710664        288.75689232       290.879083372
   0.00109705515075       287.410902233       286.070241081       284.726434026       283.771194384       283.293264406       283.525551541       284.518536574       285.934300902       288.242168613       290.564180469
   0.00112362334623       287.618655217       286.318924987       284.993560326       283.953585371        283.35766036       283.448494542       284.279847127       285.610289923       287.716232748       290.150203898
   0.00115045072968       287.797828385       286.656385706       285.326550154       284.217228166       283.525113803       283.452988673       284.109345994       285.333957725       287.246719361       289.688071646
   0.00117754423213       288.089686064       287.010836724       285.728000297       284.545024839       283.739815238       283.530398665       284.006222964       285.100893227       286.856823019       289.168430529
   0.00120489673056       288.328755935       287.377437229        286.16383802       284.932015611       284.027560614       283.666732556       283.959754899       284.901896636       286.517180704        288.69599222
   0.00123249480925       288.642058036       287.807636967       286.646739473       285.385202168       284.385821766       283.886743247       283.986306927       284.744654331       286.225234107       288.223585368
   0.00126045076471       288.904736516       288.224975824       287.161388129       285.905305806       284.820299229       284.188715784       284.082861692       284.654457031       285.960848454       287.796533437
   0.00128897487086       289.155506392       288.704106551       287.713816016       286.483073754       285.317552758       284.546422972       284.248898251        284.62422088       285.723172082       287.419497286
   0.00131812794953       289.435810899       289.180940469       288.313479901       287.114328176       285.882311883       284.977778161       284.493144093       284.661487339       285.543120599       287.069570666
   0.00134735363093       289.743814394       289.655816715       288.939017575        287.77230301       286.493010625       285.455620755       284.795376127        284.75984295       285.420932011       286.770606719
    0.0013766062126       290.002070575       290.122811585       289.564017306       288.473421472        287.14774201       285.985653949       285.154825247       284.909887904       285.361014683       286.508053848
   0.00140592149558       290.219258067       290.555629732       290.145570931       289.174964636       287.839818554       286.568673501       285.573776511       285.123128561       285.351930076       286.292406887
   0.00143521465422       290.409221252       290.950590036       290.703982979       289.846103853       288.535263765       287.176727048        286.03206252       285.389435318       285.391715298        286.11900152
   0.00146447194289       290.599700566        291.33909755       291.267418264       290.505010046       289.244886712       287.821043811       286.527491627       285.702466605       285.475884242       285.977284421
   0.00149384619769       290.731115348       291.631246546       291.769055814       291.131045128       289.930461002       288.499744134       287.084366564       286.070940911       285.611829717       285.868025338
   0.00152322915379       290.861831202       291.888071663        292.23019056       291.734281211       290.581145062        289.17097046       287.654602114       286.483495294       285.802755329       285.799762207
    0.0015525949512       290.904037053       292.104032133       292.633011216       292.307751666       291.236216746       289.843625535       288.244061713        286.91282706       286.021728837       285.771901399
   0.00158201387851       290.916618987       292.268076972       292.962888457       292.814861519       291.872989197       290.496152587       288.848092188       287.367994924       286.268564575       285.781725893
   0.00161141360855       290.949295851        292.35135108       293.194070584       293.231836693       292.458458857       291.117619446       289.433497399       287.829511219       286.542601762       285.841803607
   0.00164076648109       290.919896283       292.402483093       293.388239089       293.599474587       292.979746986       291.713881843       290.011022205       288.301845556       286.839327313       285.940419992
    0.0016701954368       290.824080538       292.351577479       293.494100359       293.889068018       293.446287814       292.271423662       290.576257447       288.801789099       287.177349251       286.080581268
   0.00169944058492       290.737545368       292.248205582       293.500825178       294.069208393       293.815330111       292.763860753       291.121046204       289.305560958        287.55234704       286.269754898
   0.00172878023701       290.594946781        292.08660046        293.43000787       294.147981965       294.074073703       293.180912917       291.628278629       289.795371366       287.953903252       286.486543079
   0.00175814383379       290.391615447       291.840882885        293.23075617       294.149953772       294.273294294       293.548556622       292.085550793       290.254194262       288.364349285        286.73234628
   0.00178730419845        290.23576384       291.575069325       292.960338853       294.010482312       294.330944244       293.836713273       292.509459184       290.694759249       288.774916295       287.010445664
   0.00181655137119       289.964034599       291.256521701       292.647664047       293.816103245       294.307096828       293.999593414       292.843224046       291.110640959        289.18978497       287.317831329
   0.00184573320945       289.736122873       290.918467034       292.250857069       293.511226911       294.185154226       294.080491573       293.128142697       291.489058383       289.584682251       287.648113827
    0.0018747392974       289.515569576       290.543820146       291.821921438       293.133949604       293.948081852       294.047169035       293.334163622       291.838836165         289.9846939       288.010403752
   0.00190350455321       289.255862604       290.097015347       291.341846019       292.683565617       293.637203668       293.930327677       293.447846709       292.129466022       290.376188608       288.403709841
   0.00193203463475       289.012577018       289.654930491       290.829889946       292.172490727       293.256216809       293.732138188        293.47939871       292.380583061       290.756391184       288.817497144
   0.00196035111291       288.782147667       289.232460305       290.311751371       291.598843287       292.786545564       293.444903368       293.424287805       292.576421611       291.111431688       289.247551343
   0.00198848170667       288.530811239       288.810271327       289.755174134        290.96713817        292.25844296       293.071506443       293.279522686        292.70454309       291.422507234       289.674060271
   0.00201645850297        288.31746105        288.41081942       289.187812979       290.323168494       291.683931409       292.639779908       293.062381988       292.748054003       291.673811481       290.076017749
   0.00204432811656       288.071961184       288.008777776       288.612690342       289.653649335       291.037366904       292.138384267       292.772757423       292.716993157       291.867874585       290.442945094
   0.00207209975738       287.859572822       287.618466522       288.073875232       289.021746698       290.341706602       291.558898645       292.398696352       292.594803412       292.008367918       290.773575152
    0.0020998132419       287.687168247       287.265443347        287.56144505       288.417775697        289.66116108       290.946684298       291.958588461       292.402214915       292.085055681       291.062712832
   0.00212751326903        287.49189655       286.980883618       287.068778672       287.803198776       288.962704521       290.295824974       291.470457325       292.152866034       292.101387261       291.319117355
   0.00215520196908       287.360872089       286.686304223       286.589615281       287.211621049       288.291687344       289.612865694       290.914730277       291.834429764       292.054645442       291.529819534
   0.00218290685778       287.302500209        286.43801692       286.183200712       286.650194164       287.655286314       288.936468397       290.322365678        291.45249245       291.935081605       291.683808023
   0.00221065669043       287.147356185       286.188939978       285.821955262       286.123639716       287.040044123       288.267070916       289.723423539       291.036019506       291.752170504       291.780962131
   0.00223848531975       287.038799651       285.982833136       285.512430398       285.633566536       286.438227234       287.608331944       289.105951662        290.58839328       291.531433702       291.826563302
   0.00226640451825       286.974787045       285.894026565       285.262546925       285.223657283       285.889842879       286.994774585         288.4808593       290.104003044       291.256680905       291.809159953
    0.0022944026979       287.022578673       285.823232254        285.07347198       284.890883651       285.385509129       286.426397924       287.881708036       289.591359152       290.929624127       291.710700501
   0.00232250874359       286.986655691       285.768557824       284.924075517       284.633061622       284.963730887       285.901681956       287.306872245       289.052073648       290.565406432       291.555282268
   0.00235075990656       287.072955455       285.760461813         284.8397715       284.427503898       284.613184953         285.4417281       286.786461646       288.504701506       290.158065205        291.34993084
   0.00237917966042       287.179739308       285.830328726       284.826221533       284.275273062       284.338578703       285.024372629       286.296779763       287.978387979       289.721849101       291.085011411
   0.00240778578876       287.277761105       285.963343797       284.872318916       284.214751506       284.143331416       284.677181209        285.85423713       287.467842965       289.258549572       290.782535415
   0.00243655638178       287.398866109       286.119065872       284.998001694       284.231692037       284.035050655       284.425980088         285.4723575       287.006573028       288.800149855       290.446271057
   0.00246544545595       287.528142081       286.307558321       285.171209083       284.336814677       284.001338204       284.238534225       285.152081907       286.596352041       288.357223903       290.097826829
   0.00249445813187       287.726919145       286.555340723       285.368099649       284.482988857       284.030716597       284.132884029       284.890852251       286.228823526       287.926888719       289.726843632
   0.00252349611105       287.919782798       286.844911531       285.677990812       284.698680623       284.111998393       284.090394028        284.69773199       285.921070194         287.5188189       289.338682231
   0.00255249176933       288.138613564       287.152230655       286.030040156       285.005516867       284.311069512       284.152201204       284.581357059       285.667236144       287.156585831       288.958024259
   0.00258152392531       288.421732605       287.551010432       286.414459896        285.35459447       284.565792232       284.293459871       284.558089521       285.476459427        286.84117913       288.579456826
   0.00261067444533       288.590021825        287.92373261       286.864345277       285.782132492       284.903598026       284.465476424       284.566883615        285.32465538       286.568083449       288.212503681
   0.00263980444396       288.838132965       288.339254278       287.342168845       286.248299044       285.327022514       284.730763809       284.658297835       285.214945174       286.319728614       287.869052208
   0.00266896617034        289.11288776       288.738475736       287.854674958       286.764051251       285.791928217       285.052286278       284.824929563       285.190082512       286.128309669       287.547587407
   0.00269815298247       289.355659099       289.140054847       288.380591605       287.311024089       286.289226016       285.442826837       285.037440139       285.208775788        285.97109774        287.25726691
   0.00272735003484       289.564031409       289.525939449       288.912797234       287.875414429       286.811546227       285.887762066       285.311696963       285.288821232        285.85352579       286.992674794
   0.00275657921395       289.791178654       289.897659154       289.424486465       288.451508015       287.355375572         286.3667709       285.638203609       285.432332194         285.8045628       286.766611007
    0.0027858894332       289.997812455        290.29326976       289.975690609        289.06988509       287.924519894       286.865169718       285.999078926        285.61755579       285.793400767       286.569793252
   0.00281522260286       290.200096413       290.654069051       290.470895078       289.690141876       288.522758372       287.395988341       286.404250711       285.836752683          285.811278       286.401407456
   0.00284455316894       290.361009242       290.984322694       290.951300529       290.281418313       289.146797538       287.958614436        286.84809919        286.10314854       285.887596333       286.287704005
   0.00287380165671       290.512131405       291.256621766       291.388816097       290.855922954       289.785201783       288.526322433       287.323395688         286.4156602        286.01278841       286.211785186
   0.00290302546432       290.618412094       291.511191668       291.772455206       291.372381203       290.384554726       289.106532616       287.823310094       286.755451338       286.164459368       286.154150596
   0.00293234971975       290.621599354        291.69961948       292.130333233       291.864620311       290.964583916       289.681907131       288.339426189       287.125927259       286.342818891       286.129294815
   0.00296176449125       290.662329052       291.855136828       292.426936156       292.302500282        291.51984224       290.275530638       288.862742423        287.52271289       286.571689975       286.152865724
   0.00299124526061       290.671299048       291.943719034       292.649177194       292.680518881        292.01843342       290.845025071       289.407463532       287.953421788       286.827965032       286.205291549
   0.00302064204151        290.65379696       291.949685563       292.798079761       293.005514824       292.462574305       291.379476818       289.938168661       288.395187265       287.109978515       286.289761524
   0.00304989776909       290.547854784       291.895594037       292.877965775        293.25882886       292.850758354       291.872893136       290.431035378       288.831074039       287.410888214        286.42039474
   0.00307920989949       290.473987366       291.830677189       292.885749822       293.424624625       293.183142858       292.324609391       290.898013602       289.262575103       287.732193151       286.588838083
   0.00310845471281       290.403443851       291.691093375       292.819559918       293.477247741       293.410155297       292.687140752       291.320994441       289.682557824        288.07717392       286.794470701
   0.00313772019254       290.211376444       291.484170032       292.679747319        293.44483976       293.560016215       292.980874232       291.712473217       290.077205863       288.431141862       287.029883416
   0.00316695307306       290.005055294       291.246294882       292.467407977       293.360785007        293.63475573       293.208279574       292.077867379       290.467622303       288.794816453       287.288376005
   0.00319611584062       289.852022881       290.965339137       292.178096066       293.174929393       293.609780101       293.361905147       292.394116222       290.843347268       289.162981699       287.572694431
   0.00322512653775       289.606757338       290.677342057       291.853704728       292.923821416       293.481929756       293.409872477       292.629505375        291.19245353       289.522671804       287.875018518
    0.0032540936848       289.432145453       290.307694701       291.441468602       292.604385812       293.289700684       293.394255764        292.79473617       291.507350243       289.868740657       288.194370825
   0.00328295241781       289.197609898       289.963019152       291.040040608       292.199060949       293.005245456       293.296699901       292.891401055       291.786123527       290.214396479       288.536411835
   0.00331160137832       289.019136252        289.58723662       290.598496102        291.76632518       292.673426363         293.1159745       292.896713737       291.990887958       290.545952397       288.891948178
   0.00334006077925       288.799098077       289.194724705       290.118348093       291.242215729       292.264650998       292.865719218       292.839754262       292.138946096       290.844619159       289.237406695
   0.00336838065555       288.553203353       288.842689061       289.603681203       290.721324003       291.784680752       292.533851062       292.723014548        292.23630329       291.114196435       289.588649629
   0.00339660393402       288.378248208       288.478777522       289.119408913       290.180833958       291.253882517       292.147179214       292.525880367       292.260231937        291.33935491       289.928571266
   0.00342472076707       288.170243923       288.145525234       288.631711111       289.595755656       290.692834928       291.701706123       292.257400959       292.215383893       291.500298282       290.226053728
   0.00345274325975       287.973555445       287.788050973       288.134346658       289.006523733        290.11719812       291.197226008       291.925285721       292.111019866       291.610649101       290.502579893
   0.00348069957803       287.837571432       287.491605316       287.697108282       288.444278043       289.553397011       290.661099304       291.540159092       291.941888693       291.676148399       290.766627111
   0.00350862609239       287.648128818       287.182816183       287.266562372       287.903254813       288.987189488       290.106434142        291.10990261       291.713205794       291.690258739       290.995642042
   0.00353654553674       287.574885408        286.93888813        286.85293291       287.365843618       288.399127541       289.529778848       290.642211557       291.426963517        291.64100332       291.184810263
   0.00356447310267       287.438090933       286.717224708       286.510404737       286.878866821       287.806208638       288.941808228       290.143639493       291.093473471       291.545518992       291.329529161
    0.0035924301824       287.380936052       286.538982886       286.191575425       286.421288957       287.244724798       288.365329108       289.623082859       290.736046583       291.405064789       291.425018519
   0.00362042322097       287.302829217       286.357673387       285.912850095       286.015085287       286.695660665       287.789674244       289.098699563       290.361961602       291.211945126       291.465071577
   0.00364847635432       287.232172059       286.233691853       285.696508217        285.66225197       286.205305385       287.229673793       288.560356093       289.952713801       290.969081039       291.446329993