# Probe 0 (0.00909091 0.05 0.02)
# Probe 1 (0.01818182 0.05 0.02)
# Probe 2 (0.02727273 0.05 0.02)
# Probe 3 (0.03636364 0.05 0.02)
# Probe 4 (0.04545455 0.05 0.02)
# Probe 5 (0.05454545 0.05 0.02)
# Probe 6 (0.06363636 0.05 0.02)
# Probe 7 (0.07272727 0.05 0.02)
# Probe 8 (0.08181818 0.05 0.02)
# Probe 9 (0.09090909 0.05 0.02)
#             Probe                   0                   1                   2                   3                   4                   5                   6                   7                   8                   9
#              Time
   0.00945854825163       5491.24275751       5493.49150852       5499.81657153       5507.85077844       5517.08109984       5526.62379069       5537.61316575       5549.36324087       5561.47106152       5574.12894431
   0.00948759510053       5490.11049309       5494.92767677       5501.24147065       5508.85023789       5518.29026772       5528.62553878       5539.78656834       5551.14074695       5563.02759104        5575.2859035
   0.00951671721825       5492.58321973       5498.85154761       5505.02613835       5512.75273535       5521.31794951       5530.64031709       5541.49385922       5553.09862922       5564.75588406        5576.1749775
   0.00954583412026       5494.88578444       5501.24622396       5508.95933764       5517.23727284       5526.49554348       5535.53172576       5545.19176293       5555.55761356       5566.53752273       5577.30588271
   0.00957499310901       5503.99727676       5509.46234081       5514.78920925       5522.21675229       5530.79079589       5539.76021856       5549.81950328       5559.70601686       5569.18951742       5578.67297728
   0.00960410376704       5509.20328346       5514.32960898       5521.71349517       5529.01670881       5536.62341136       5544.87633465       5553.87363922       5563.10430476       5572.08275535       5580.07490254
   0.00963318208458       5517.17289369       5522.63112321       5529.08725947       5536.17736049       5544.41270657       5552.07503481       5559.78104474       5567.31890794       5574.40848569        5581.6588062
   0.00966237603224       5528.77794352       5534.58790499        5540.3217255       5546.31200338       5552.62608363       5559.04890383       5566.04900443       5572.29950096       5578.33010412       5583.73482333
   0.00969162513694        5540.3937341       5545.19141064       5549.89093891        5556.1259071       5562.06187914       5567.42267909       5572.22639509       5577.22107708       5582.00105916       5585.68748301
   0.00972078808842       5550.53243591       5555.58870817       5561.33401191       5566.12515441       5570.52026289       5574.68836752       5579.08947613        5582.8099089       5585.17095893       5587.26446599
   0.00974999870707       5563.97612173       5567.58512777       5572.08835836       5576.12681223        5580.2771231       5583.25317523       5585.73607201       5587.37378439       5588.78935247       5589.37219026
   0.00977928645462       5575.02648221       5579.74723389       5584.18610133       5586.92879835       5589.34119227       5591.32638678       5592.49294349        5592.8061443       5592.44715687       5591.46563055
   0.00980849103932       5591.67541523         5593.269552       5595.05425949        5596.9679816       5598.53357687       5599.02835565       5598.84645037       5598.19103053       5596.38351977       5593.26201356
    0.0098378179547       5600.37063853       5604.44868796       5607.26889788       5608.15664163        5607.7506159        5606.9088675       5605.42345257        5602.9231669       5599.41553549       5595.26095636
   0.00986713497353       5615.69482272       5617.18505839       5616.86138657       5617.03211106       5616.51031302       5614.89882789       5611.92360126       5607.74670531       5602.77122097       5596.82966154
   0.00989632528964       5626.84472935       5627.78238217       5628.66304445       5627.47149279       5625.24807823       5622.13852417       5617.78975469       5612.39022784       5605.97018864       5598.45431915
   0.00992545608201       5638.49394052        5638.7799657       5637.80225757       5636.32162902       5633.43286316       5628.98296975       5623.41635228       5616.71144651       5608.63200922        5599.8723786
   0.00995469369342       5648.78392729       5648.60711775       5647.13312154       5644.20461334       5639.80941074       5634.99658004       5628.28070272       5620.10581149       5611.20836881       5601.48989311
    0.0099838387141       5656.73273507       5657.20889256       5654.99717752       5651.63660352       5646.42573841       5639.74383126       5631.64763638       5622.90229562       5613.11749898       5602.34983319
    0.0100130899847       5665.17149079       5664.84578211       5661.12296164       5656.37796718       5650.41869606       5643.54120719       5635.05729198       5625.27139691       5614.44567144       5602.66703687
    0.0100423674169       5672.76819375       5670.93607626       5667.16327623       5661.64201498       5654.40588879       5646.39415048         5637.193074       5626.87238597       5615.37287766       5603.50247287
    0.0100716131598        5677.4261132       5674.27828515       5669.90019836       5664.49788526       5657.40646817        5649.0861347       5638.98672467       5627.69280044        5616.0711622       5603.76247249
    0.0101008373464        5681.9950432       5678.66782621       5673.21506938       5665.73346087        5657.8057904       5649.38979161       5639.23128921       5628.26719998       5616.28430164       5603.53394843
    0.0101300015373       5683.23831827       5678.78538291       5674.17495091       5667.84033543       5659.15559968       5649.39577071       5638.92829259       5627.66503936       5615.58345947       5603.45760676
    0.0101589161372       5682.00458768       5679.20497426       5673.16944378        5666.2591453       5658.30632616       5649.35662881       5638.32339146       5626.50754743       5614.75471621       5602.65646028
    0.0101879711088        5682.5321768       5678.05159881       5671.34968124       5663.70876948       5654.93007327       5645.93907466       5635.94566749       5625.15262682       5613.56983956       5602.00769267
    0.0102170205721       5676.84108773       5672.13616274        5667.0093628       5659.95719024       5651.30723552       5641.94893241       5631.92378412        5621.8608399        5611.6487773       5601.17801915
    0.0102459327021       5673.70734113       5668.98977096        5662.6344472       5654.66312531       5646.56492286        5638.2973748        5628.8209067       5618.90643281       5609.10188283       5599.42052504
    0.0102748456427       5669.05554206       5664.18270675       5657.54644565       5650.25450071       5641.79736696        5633.5324119       5624.86791737       5616.03600652       5606.85213375       5598.14688459
    0.0103036772968       5661.38682869       5655.96164541       5649.70619595       5642.90573456       5635.87346114       5628.27797471       5619.92362856       5611.71136891       5604.04519523        5596.7231524
     0.010332435829        5651.9660547       5647.05558652       5641.47365311       5634.86830152       5627.97333896       5621.44055991       5614.57510173       5607.47057128       5600.80893614       5594.89855173
    0.0103611389251       5643.25903134       5638.45085584       5632.88670615       5627.05089406        5621.0704147       5614.74217335        5608.4162343       5603.03268137        5598.0388571       5593.38129166
    0.0103898025827       5631.86940867       5628.14704671       5623.58466837       5618.25274885       5612.44454197       5607.57912411       5602.85152197       5598.29907195       5594.52920115       5591.61390776
    0.0104184381693       5622.17342332       5618.99002018       5613.98283457       5608.62650845       5604.07531221       5600.01760146       5596.29488368       5593.53258351       5591.19392909        5589.5064951
    0.0104470625711       5611.15861664       5606.76323457       5601.94017421       5598.90449672        5595.6598012       5592.66412158       5590.29760139       5588.43439281       5587.65091236        5587.8877698
    0.0104756946795       5599.47771563       5595.39614501        5592.3854104       5588.90134233       5586.21417231       5585.08966283       5584.28654467       5584.12408352       5584.70443994       5586.08234018
    0.0105043495077       5586.16722044       5583.96767187        5580.9468852       5579.03693733       5578.16125348       5577.29998061       5577.53644106       5579.12294056       5581.46144609       5584.57210661
    0.0105330407085       5574.39185566       5572.72683646         5570.686771       5569.77452618       5569.30529392        5570.0829448       5571.89305634       5574.25670608       5577.80208598       5582.45973531
    0.0105617900395       5563.79107243       5561.51573123       5560.70405492       5560.59429947       5561.50124484       5563.43742384       5566.25600033        5570.2283185       5575.12969643       5580.97241105
    0.0105906155592       5552.68433538       5551.72113135       5551.39137502       5552.18814872       5554.43179741       5557.09252811       5561.08923131       5566.40693945        5572.8172041       5580.08820853
    0.0106195004181       5543.98863111       5542.55475792       5542.69520841         5544.619903        5547.2768098       5551.28746182       5556.72704367       5563.03426123       5570.40757379       5578.65694045
    0.0106484109533         5532.853894       5533.59825743       5535.27090569       5537.59548715       5541.44318409       5546.36481183        5552.7346584       5560.41162892       5568.69505836       5577.63652857
    0.0106773875545       5523.45013957       5525.07964672       5527.06342997       5530.79820011       5536.03239374       5542.05639887        5549.5345648       5557.79858106       5567.20562896       5577.34461142
    0.0107064118482       5518.54997616       5518.95330701       5521.47137978       5525.80576948       5531.45335151       5538.22726705       5546.49652974       5555.87668084       5565.86029148       5576.30333017
    0.0107354016071        5511.5043323       5513.71048078       5517.53299488       5522.43977042       5528.95488736       5536.18469647       5544.83654255       5554.41069546        5564.7875156       5575.67542204
     0.010764493215       5507.93499392       5509.77265388       5513.77847442       5519.21143079       5526.40447157       5534.60504742        5543.8780613       5553.82385861       5564.33341099       5575.73915681
    0.0107936091576       5502.78755536       5506.82165617       5511.88360391       5517.90031574       5525.27205115       5533.07216878       5542.61871547       5553.19940595       5564.45648874       5575.81235254
    0.0108226437233       5502.34803786       5504.83937363       5510.40960627       5517.37255555       5524.78130426       5533.14554206       5542.74016204       5553.16449336       5564.39502059       5575.89499172
    0.0108517105906       5502.00405709        5506.2565291       5511.09467547       5517.44027337       5525.80849894       5534.71429836       5544.36562593       5554.69381345       5565.28228852       5576.20596491
     0.010880729318       5503.21132447       5508.02235442       5513.27850765       5520.24045111       5527.86968307       5536.39181689       5546.61683238       5556.97748985        5567.2895017       5577.48887411
    0.0109097737732       5505.96714046       5510.26220935       5516.13538829       5523.40929195       5531.51520747       5539.89202733       5548.86104399       5558.64288683       5568.79709436        5578.6649776
    0.0109388244123       5511.66174162       5514.46302473       5520.63913514        5527.3187477       5535.15735672       5543.41056844       5552.49379309       5561.37409293       5570.13367874       5578.89506683
    0.0109679935469       5515.79526152       5520.65052321       5527.23608374       5533.28474931       5540.79971336       5548.12970522       5556.08305603       5564.40321526        5572.6055159       5580.36406128
    0.0109971253423       5523.08547097       5528.05725657       5533.60852929       5540.56067145        5547.3220721        5554.0039599        5561.0446576       5567.96422284       5574.86211071       5581.86246578
    0.0110262156586       5531.01321552       5536.36601471       5541.82344138       5547.53621823       5553.65985065       5559.91190202       5566.20873199       5572.38115943       5578.14164767       5583.27471319
    0.0110552863237       5540.49606016       5545.03991632       5550.06377717        5555.2797017       5560.54918401       5565.73740132        5571.2553002       5576.41829621       5581.21911087       5585.55194838
    0.0110844496291       5550.29167625        5554.1911781         5558.673346       5563.44540433       5568.46254583       5572.69767856       5576.72491699       5580.63747983       5584.19489052       5586.80146341
    0.0111135190122       5560.20426655       5564.54866142       5568.17068386       5572.01917057       5575.71877706        5579.2038096       5582.63829807       5585.24309639        5586.8792842       5587.99444733
    0.0111427443588       5573.33239426       5575.31668934       5578.44794266       5581.30040066       5583.80663379       5586.01831729       5587.84971117       5589.10892833       5589.68814026       5589.82208394
    0.0111720475967       5583.88923235       5586.38497247       5589.52159905        5591.6974328       5593.26690104       5593.98743528        5594.1568488       5593.73959048       5593.04626234       5591.67074602
    0.0112012901329       5592.53992235       5596.53385932       5598.66072798       5600.44576004       5601.56576364       5601.80037591       5600.93610762       5599.35365092       5596.93699015       5593.68636643
     0.011230485005       5603.42227343       5606.34040333       5607.92178415       5608.56729487       5608.72024713       5607.99174166       5606.54351634       5603.97423678        5600.1730799       5595.42272405
    0.0112596276147       5617.16977902       5618.38253501       5618.40581615        5618.1842426        5616.6634538       5614.29778899       5611.16777984       5607.24043006       5602.47421586       5596.70244845
    0.0112887080972       5626.53223709       5627.25291992       5627.46012597       5626.01233764       5623.84083049       5621.05375941       5616.58850235       5611.11631086       5604.81115798       5597.87015806
    0.0113177906605       5634.36844155       5635.17883187       5635.21761128       5633.23603807       5630.25142746       5625.87866082       5620.81370777        5614.6873441       5607.39955089       5599.18317379
    0.0113469208868       5645.62953216       5645.97011363       5642.95156115         5639.714395        5635.7461878       5631.00430513       5624.53701985       5616.98621666        5608.8378517       5599.90211332
    0.0113760805587       5654.14610368       5652.61420549       5650.27923806       5646.68389159       5641.02674537       5634.77575969       5627.55447267       5619.43574189       5610.08677131       5600.44894137
    0.0114052977669       5657.77898689       5656.18288064       5653.87313713       5649.92172871       5644.77900417       5638.34061548       5630.08808775       5620.88999357       5611.48770968       5601.41522771
    0.0114344891293       5664.69265966       5662.43252866       5657.82413735       5652.66967144       5646.79783245       5640.07158171       5631.79813818       5622.62990603          5612.47918       5601.75546858
    0.0114637009964       5667.44773219       5665.47630076       5661.92016054       5656.58016859       5649.14638006       5641.21033165       5632.69783903       5623.40216574       5613.16672089       5602.20796967
    0.0114929150737       5669.76120912       5666.54057246       5662.52963291       5656.75716926       5649.93207213       5642.31896964       5633.10748948       5623.24702792        5612.9558539       5602.01845734
    0.0115220432675       5669.34044031       5666.73274673       5661.82006235       5655.65295719       5648.96665793       5641.37146718       5632.48262349       5622.56234787       5611.81341895       5601.01243312
    0.0115511905429       5673.17138374       5668.13867673       5662.00266262       5655.67161451       5647.93110757       5639.81552528        5630.7314001       5620.85307969       5610.62748226       5600.36272183
    0.0115803828335       5668.88688394       5665.28045659       5660.69490588       5653.93226684       5646.13505613       5638.17427778       5628.73682886       5619.03963917       5609.39603111       5599.93380118
    0.0116094919988       5666.79158888       5660.76873697       5655.65586464       5649.82793642       5642.65373421       5634.44062116       5625.73637996       5617.04354172       5608.17814562       5599.18889842
    0.0116385162459       5664.01063098       5658.23975409       5652.25679601       5644.96334078         5637.580536         5630.449923       5622.47921455       5614.10749873       5605.95829376       5597.90354577
    0.0116674688737       5655.92055495       5652.45072478        5647.3230479       5641.05792772        5633.6313689       5626.15454652       5618.69767441       5611.29402341       5603.66095163       5596.33150929
    0.0116963595106       5647.79193161        5642.4640327        5637.5463101       5632.73633012       5626.88752351       5621.01018648         5614.299299       5607.52414353       5601.13924057       5595.23107602
    0.0117252023828       5641.65678153       5637.36366091       5631.71823992       5625.50153351       5619.65158226       5614.30665811        5608.8291731       5603.41183146       5598.29481263       5593.74377234
    0.0117540003013       5633.81238555       5628.85392988       5623.99321826       5618.94084113       5613.64369758       5608.60896911       5603.66467303       5599.27640306       5595.56566732       5592.12223446
    0.0117827617217       5623.84255611        5619.0687176        5614.3373404       5610.29607504       5606.15622789        5602.1179999       5598.48737069       5595.38906915       5592.52375582       5590.31570154
    0.0118115027089       5613.38003712       5608.44528924       5605.19895825       5601.53147267       5597.97917798       5595.38728606        5592.8586385       5590.53023736       5589.09391801       5588.59375249
    0.0118402322194       5601.98911474       5600.23358058       5597.20194973       5593.76021413        5591.2916641       5589.00468454        5587.2326818       5586.31654536       5586.07256629       5586.86344121
    0.0118689695901       5590.48570934        5588.4651804       5586.47690719       5585.73395341       5584.09987258       5582.76988402       5582.21998823       5582.48220072       5583.92830592       5585.93375087
    0.0118977263652       5582.53464239        5579.5104737       5577.49077483       5575.91479711       5575.29973315       5575.87607166       5576.84712946       5578.84378378       5581.44404944       5584.84043508
     0.011926505042       5572.77061114        5570.6139528       5569.45489054       5568.23985815       5568.40277537       5569.37251838       5571.80034186       5574.86897684       5578.68542749       5582.84399978
    0.0119553178288       5561.43157847       5560.99413697       5559.90316932       5560.59916062       5562.05166011       5564.28560131       5567.46593845       5571.59061972       5576.15443824         5581.559012
    0.0119841843875       5553.90031206       5553.16970047       5552.87540123       5553.75736304       5555.53876965       5558.65426026       5562.73876013       5567.66420214       5573.68548041       5580.81625966
    0.0120131087265       5543.16495011       5543.69576979       5545.38911789       5547.52472042         5550.637681        5554.1798342       5558.84817452       5564.56440164       5571.52249443        5579.0550699
    0.0120420271255       5536.53575728       5537.09987829        5537.8940777       5540.88048775       5545.32178194       5550.16904847        5555.8793598       5562.70730108       5570.15528912       5578.33535466
    0.0120707658704        5530.6625894       5529.77904864        5533.3498662       5536.31172454       5540.22698982       5545.68696703       5553.00506801       5560.90786187       5569.19631742       5578.50737306
    0.0120995914581       5523.95834131       5525.97980353       5528.47576401       5532.37365625       5538.02109947       5543.78462294       5550.69766621       5558.83144149       5568.42037169       5578.01484841
    0.0121284554046       5517.82139472       5519.97682062       5523.20181481       5528.02384631        5534.1119423       5541.48167746       5549.63837522       5558.53946287       5567.74984594        5577.2595182
    0.0121573921225       5516.62325046       5518.53112925       5521.94908758       5526.95289647       5532.90340157        5539.4182606       5548.14113153       5557.78705564       5567.36798157       5577.34830663
    0.0121864291915       5513.25153746       5516.44432382       5520.89498509       5526.12448384       5532.86511616       5540.58922384       5548.88279204       5557.47413258       5567.18461086       5577.26207909
    0.0122154523189       5512.84182219        5516.5859391       5520.69971681       5526.67749094       5533.53019548       5541.06128307       5549.78391387       5559.03358858       5568.22822923       5577.80566995
    0.0122444543781       5512.73530511       5516.09081913       5521.42809887       5527.84484988       5535.11161067       5542.54517473       5550.67774484       5559.54507732       5569.13106604       5578.62553704
    0.0122735786493       5515.55869917       5519.53202756       5524.43807856        5530.0819566       5537.17317331       5544.60550085       5552.83905725       5561.28747248       5569.86097844       5578.65522758
    0.0123026725635       5518.77918545       5522.24560652       5527.45890309       5534.04170563        5540.4701933       5547.23388631       5555.26045673       5563.67907796       5572.01553915       5580.12932246
    0.0123315022856       5522.04991983       5527.13285253       5532.34799587       5537.66533429       5543.97678709       5550.86443355       5558.17108024       5565.80617132       5573.76303359        5581.3838588
    0.0123605090825       5527.15879673       5531.37436458        5535.9394493       5542.22487054       5548.63246771       5555.00507577       5561.94880275       5568.88324065       5575.44577842       5581.62666485
    0.0123895345541       5533.07337977       5537.04946252       5543.10948993       5548.11043497       5554.09009568       5560.23110038       5566.53249524       5572.48049924       5577.94109914       5583.37225334
    0.0124186134778       5541.20670201        5545.3046111         5549.285592       5554.40674265       5560.16885269       5565.25267722       5570.63777558        5575.6660667        5580.5984856       5584.95341332
    0.0124477961552         5551.370241       5555.39085351       5558.38943209       5562.49587859       5566.46179091       5570.76516619       5574.91575928       5578.88528833       5582.50489551       5585.69531309
    0.0124770586785        5557.9450713       5561.87093048       5566.54416819       5570.70122446       5574.30053114       5577.23546703        5580.0423027       5582.81223405       5585.22751341        5587.3397286
    0.0125063006147       5568.78168277       5571.80798264       5575.15105714       5578.24770243       5581.20481823       5583.58102497       5585.77203343       5587.40537927       5588.67735379       5589.34199244
    0.0125355271815       5577.54371839       5581.17326794       5584.00396991       5586.20841878       5588.21275549       5589.84507706       5591.08177532       5591.93823551       5591.84773135         5590.771366
     0.012564779617       5588.07552738       5590.77494421       5592.79986713       5594.64432708       5595.84457045       5596.55582164       5596.81265456       5596.01754663       5594.39217906       5592.40036848
    0.0125940132992       5598.11448368       5600.25499245       5601.26958769       5602.10861717       5602.83399871        5603.0113472       5601.90987076       5599.96021773       5597.41268699       5593.89850593
    0.0126232963962       5605.85841985       5608.19730308       5609.36058273        5609.9016525       5609.44095803       5607.85372458       5605.87254114       5603.29124238       5599.65585529       5595.11966711
    0.0126525776963       5616.66430459       5618.86423047       5618.42526174       5617.75323923       5616.03971148       5613.69532476       5610.31806612       5605.99984809       5601.05791076       5595.67538139
     0.012681821113       5626.42812939        5626.4119815       5626.33642066       5625.07330031       5622.47366619       5619.16930568       5614.68692422        5609.3225132        5603.2896527       5596.84970789
    0.0127110032462       5633.29219749       5633.82787103       5632.19641307        5629.7591579       5626.91960982       5622.98722946       5617.93207038       5612.10588199       5605.48773693       5598.23576528
     0.012740199696       5640.95513868       5639.39598011       5638.42109977       5636.26852847       5631.74090123        5626.7517222       5620.92460353        5614.2768303       5606.97431471        5598.8970571
    0.0127693344354       5646.13523176       5645.87428434       5643.36596527        5639.2950384       5635.47321648       5630.62120134       5624.02204619       5616.66620502        5608.5031404         5599.852289
    0.0127985291852       5652.61871512       5650.06589672       5647.48560079       5644.01980135       5638.32149254       5632.18804488        5625.7193864       5618.14047379       5609.75764167        5600.4102829
    0.0128276324551        5654.7830315       5654.17756095        5651.3058179       5646.30127983       5641.00071702       5634.89839087       5626.98696447       5618.75084033       5609.74666477       5600.05679507
    0.0128566617224        5658.7400525       5656.79179937        5652.2263193       5647.98463217        5642.4460996       5635.71825763       5628.27166466       5619.37090142       5609.57815549       5600.08112248
    0.0128857628339       5660.12379604       5656.17897068       5653.62753093       5648.65862583       5642.17117612       5635.73378783        5627.5889102       5618.66430954       5609.72966009       5600.24646764
    0.0129148646793       5661.90845347        5659.1788116       5654.14665489       5647.96071799       5641.64663181       5634.14571509        5625.8050724       5617.42968942       5608.52485193        5599.3369969
     0.012944044837       5661.48956366       5657.75789734       5652.71094236       5647.46828147       5640.28911063       5632.73760551       5624.44519034       5615.75034716       5606.97305397       5598.45164891
    0.0129731809589       5658.55418499       5655.02688474       5650.33625608       5644.42154971       5637.60729886       5630.76942648       5623.01824812       5614.65606186       5606.32593499       5598.26954329
    0.0130022580027       5656.45668581        5650.9414112       5645.80521927       5640.16154538       5633.72892542       5627.04936243       5619.76398257        5612.6559781       5605.41686055       5597.65985426
    0.0130312857859       5649.87466186       5645.88550031       5641.64667687       5635.24749592       5629.30569378       5623.07548991       5616.56192174       5609.91877921         5603.053278       5596.46093654
    0.0130602563427       5646.92773309       5641.40639576       5636.08213143       5630.97702673       5625.04705674       5619.16200328       5613.30696117       5606.96654085       5600.80191786       5594.91601662
    0.0130891829761       5636.90527322       5633.95034188       5629.50993618       5624.72597115       5619.65867921       5615.05304051       5609.23022548       5603.69684752       5598.45597835       5593.54771947
    0.0131180716996       5630.16459025       5626.71448183       5622.01149386       5618.09224248       5613.67155425       5608.90316301       5604.40550639       5600.09547172       5595.79843529        5592.4586441
    0.0131469350953       5623.13912585       5618.89963934       5615.54100216       5611.77640223       5607.61809729       5603.69379537       5599.63728275       5595.92964221       5593.43905363       5591.09931872
    0.0131757843444       5615.54022767       5612.50190041       5609.28042183       5604.93928071       5601.40045113       5598.10538578       5595.18745065       5592.97161684       5590.89054674       5589.48753878
    0.0132046372663        5606.1918169       5602.98650061       5599.87109412       5597.43163048       5594.52014096        5592.0890202       5590.37443687       5589.12523917       5588.39662798       5588.26151363
    0.0132335227719       5597.29209125       5594.09354223       5591.53555167       5588.89963873       5587.06008767       5586.20375628       5585.43702394       5585.17353486       5585.66946249       5586.96881824
    0.0132624282258        5587.8417054       5586.73322162       5583.83780068       5582.16302044       5581.21208944       5580.50304019       5580.58998648       5581.55303302       5583.29799428       5585.58283633
    0.0132913647689       5580.56766864       5578.09232884       5576.23993664       5575.37817506       5574.97614678        5575.5517903       5576.73080222       5578.56771973       5581.09372237       5584.27973586