# Probe 0 (0.00909091 0.05 0.02)
# Probe 1 (0.01818182 0.05 0.02)
# Probe 2 (0.02727273 0.05 0.02)
# Probe 3 (0.03636364 0.05 0.02)
# Probe 4 (0.04545455 0.05 0.02)
# Probe 5 (0.05454545 0.05 0.02)
# Probe 6 (0.06363636 0.05 0.02)
# Probe 7 (0.07272727 0.05 0.02)
# Probe 8 (0.08181818 0.05 0.02)
# Probe 9 (0.09090909 0.05 0.02)
#             Probe                   0                   1                   2                   3                   4                   5                   6                   7                   8                   9
#              Time
   0.00945854825163       288.538999279        288.02971686       287.440551569       286.901556268       286.529184135       286.413625043       286.656055567       287.249044681        288.07211587       289.020614676
   0.00948759510053       288.644279534       288.221579414        287.65768619       287.086791589       286.670270463       286.488573723       286.642145342       287.136589445       287.904111663       288.842102158
   0.00951671721825       288.769658778       288.439979542       287.896265125       287.315333968        286.84654363       286.583627505       286.644766991       287.051114562       287.749806455       288.656802453
   0.00954583412026       288.807163092       288.624338286       288.131725584       287.573780839       287.063914331       286.739601902       286.699041849       286.997093644        287.61056513       288.473263289
   0.00957499310901       289.022173692       288.864297248        288.38944699       287.834349011       287.282984644       286.907739888         286.7939988       286.986886294       287.498772606        288.29861898
   0.00960410376704       289.133746773       289.032151952       288.657668235       288.112594824       287.530564115       287.105218086       286.898746625       286.987206571       287.413047946       288.132693064
   0.00963318208458       289.201824315       289.222308153       288.914827982       288.396611298       287.816160461       287.350995801       287.047867677       287.024327265       287.337982659        287.98027631
   0.00966237603224       289.349915889         289.4484137       289.231118952       288.722100248       288.115787726       287.605924987       287.229787289       287.099409298       287.309095058       287.847927777
   0.00969162513694       289.450048594        289.63971139       289.503406237       289.049466301       288.446021418       287.894714139       287.425073126        287.19840768       287.303880131        287.73201566
   0.00972078808842       289.559363656       289.796060202       289.763396882       289.348658981       288.757293786       288.179558602       287.654293554       287.326812001       287.312639508       287.631026616
   0.00974999870707       289.650259535       289.939832682       289.981699185       289.646250586       289.087983374       288.489211767       287.891115322       287.458605442       287.355087823       287.558693824
   0.00977928645462       289.688316411       290.087849544       290.198134744       289.950394058       289.402484152       288.790730439        288.14636476       287.623890605       287.417891958        287.51232855
   0.00980849103932       289.768896214        290.22682695       290.366681871       290.220455723       289.716424202       289.079735511       288.405181449        287.81071704        287.50618079        287.48206287
    0.0098378179547       289.768494436       290.309733453       290.556839443         290.4752138       290.017933211       289.378610266        288.67914036       288.008669111        287.60037124       287.477169074
   0.00986713497353       289.836906397         290.3760782       290.669242414         290.6671494       290.304415517       289.687768245       288.953361589       288.230449397         287.7194021       287.487348442
   0.00989632528964       289.775132827       290.408545122       290.803041496       290.858076448       290.563963207       289.981323484       289.215033533       288.470711207       287.863983893       287.521065273
   0.00992545608201       289.788409059       290.433581065        290.87730502       291.004620847       290.787631265        290.25418387       289.476516179       288.713041808       288.027911495       287.573083864
   0.00995469369342       289.781407557       290.439764661       290.918088031       291.105241921       290.957339943       290.492990024       289.734403161       288.947288464       288.215244775       287.652439225
    0.0099838387141       289.691978581         290.3834387       290.913880301       291.176241153         291.1073803       290.697482162       289.968784161       289.169925273       288.399602823       287.741718359
    0.0100130899847       289.622275798       290.302737465       290.869347005       291.195098132       291.199748435       290.870554298       290.196158933       289.386215423       288.576941683       287.843078389
    0.0100423674169       289.563447297       290.203997099       290.810627504       291.199759562       291.257735227       291.004319803       290.397002906       289.595529863       288.754821452       287.968871742
    0.0100716131598       289.427001899       290.060739221       290.694913076        291.13476188       291.283721692       291.113235826        290.58390378       289.795826276       288.936099567       288.104695374
    0.0101008373464       289.382659421       289.933767454        290.56674699       291.010977559       291.250880814       291.163047786       290.734315019       289.994631214       289.117741666       288.249260194
    0.0101300015373        289.27118706       289.757008746        290.38195953        290.89232106       291.203327509       291.180617548        290.85410435        290.16710131       289.291211703       288.411527611
    0.0101589161372       289.127007855       289.602188422       290.155418342       290.709554052       291.104721452       291.178355651       290.939125252       290.317054326        289.46486272       288.575479928
    0.0101879711088       289.053148998       289.442507714       289.941332105       290.504940518       290.944666292       291.109061472       290.967985903       290.450252737       289.639630844       288.761677809
    0.0102170205721       288.901462737       289.203888169       289.688900685       290.273758789       290.758968712       291.002661422       290.940299555       290.536165066       289.804008163       288.957659909
    0.0102459327021       288.821340997       289.015607417       289.439873694       290.005145751       290.541441647        290.87506357       290.900860825        290.59465175       289.948682244       289.143480823
    0.0102748456427       288.724109751       288.838716711       289.212682122       289.748000262        290.31059919       290.706247054       290.828935125       290.627520515       290.080665429       289.331502747
    0.0103036772968       288.588237351       288.649656356        288.96394735       289.459858714       290.056406068       290.511744172       290.717458547       290.610166362       290.184180024       289.506642698
     0.010332435829        288.48999277       288.463470096        288.70235683       289.160988578       289.754720182       290.277675843       290.571703994       290.573079664       290.256918407       289.660189227
    0.0103611389251       288.409716907       288.299435747       288.469630421       288.880350047       289.462262914       290.020627206       290.386102346       290.509952206       290.313711306       289.800626248
    0.0103898025827       288.294006646       288.129828464       288.239775154       288.595377084       289.146139028       289.743835221       290.189377673        290.41255354       290.336040204       289.921776969
    0.0104184381693       288.230019016       287.972492141       288.005772654       288.309496422       288.836966513       289.444864843       289.962635263       290.288150408       290.329032771       290.018009025
    0.0104470625711       288.162890205       287.823808237       287.763380558       288.034295474       288.524387645       289.139617526       289.729915665       290.132576184       290.289939528       290.102325779
    0.0104756946795       288.117230733       287.730219934       287.586895463       287.775138971       288.209997258       288.834829822       289.481537515       289.965737536       290.227996394       290.162006861
    0.0105043495077       288.075341656       287.622515439       287.415788697       287.544317351       287.934589498       288.531529208       289.201432875       289.771764798       290.131409677        290.20113928
    0.0105330407085       288.049867296       287.549277895       287.294031202       287.332211755       287.671215409       288.242011751       288.924113954       289.561994716       290.012474961       290.207044643
    0.0105617900395       288.012121636       287.484638499       287.190260601       287.145059494       287.435186295       287.960412974       288.645463242       289.352179367       289.881674585       290.181919506
    0.0105906155592       287.990390862       287.458785822       287.114157372       287.001805359       287.222362744       287.695203936       288.380053513       289.130732994       289.736518851       290.145156858
    0.0106195004181       288.033746004       287.447584991       287.060041104       286.898118078       287.034579178       287.460069463       288.133758002       288.894525164        289.56700651       290.073966796
    0.0106484109533       288.078397076       287.465935839       287.032605485       286.818278142        286.89078339       287.257623468       287.895739078        288.65863254       289.389910917        289.98184638
    0.0106773875545       288.111989066       287.494309702       287.024575279       286.756712209       286.772142362       287.081122501       287.672502299       288.422441404       289.199588141       289.876418543
    0.0107064118482       288.187854534       287.570163039       287.059082314       286.739179339       286.690776218       286.928076935       287.466398542       288.206162973        289.00296398       289.734697782
    0.0107354016071       288.253548263       287.678764312       287.143545476       286.778068781       286.665121281        286.82117277       287.301761985       288.008046394       288.802489595       289.574229323
     0.010764493215       288.361728018       287.781309562       287.233599594       286.831937257       286.658802094       286.745527346        287.16662564        287.83433912       288.611447924        289.41277239
    0.0107936091576       288.427096112       287.911508201       287.366044315       286.925893396       286.681101061        286.69688821       287.044018437       287.671634232       288.434051502       289.246241154
    0.0108226437233       288.519454767        288.03482182       287.509194638       287.039532532       286.738820711       286.699253646       286.957721468       287.526970628       288.260448782       289.076116704
    0.0108517105906       288.610224333       288.197860305       287.686971727       287.175684869       286.842556134       286.747758284       286.916849478        287.41500956       288.102337233       288.904733601
     0.010880729318        288.67329456       288.374654821       287.886603754       287.374419138       286.984326573       286.822233318       286.914128507       287.329426988       287.967897136        288.74521864
    0.0109097737732       288.827717642       288.545835528       288.092400082        287.59910625       287.168297068       286.932442333       286.938401989       287.254860716       287.838202842        288.58741688
    0.0109388244123       288.971443168       288.714266191       288.313881914       287.823401418       287.359544178       287.060840418       287.004231156       287.219523047       287.717692239       288.419583478
    0.0109679935469       289.038069715       288.911555464        288.56016037       288.071713427       287.591376203       287.224735984       287.086274047       287.217497037       287.632138963       288.273315254
    0.0109971253423       289.179470559       289.107297588       288.801831746       288.338786261       287.843154758       287.426513015       287.203371138       287.241606908        287.56186016       288.140876489
    0.0110262156586       289.233857314       289.309182619       289.056764766       288.601406643       288.099340314       287.644169522       287.341747821       287.294078799       287.526642438       288.016162035
    0.0110552863237       289.345606553        289.46486409       289.286580792       288.877894294       288.361333364       287.871136442       287.498938255       287.356745072       287.509988982       287.921378281
    0.0110844496291       289.424040716       289.609142831       289.500253369       289.157755551       288.640197116       288.121506117       287.680199308       287.445313047       287.510807161       287.830111598
    0.0111135190122       289.500313175        289.76307993       289.713051051       289.425928125       288.907584821        288.37340554       287.885891665       287.560888535       287.525670474       287.754456375
    0.0111427443588       289.621909724       289.900741166       289.921582938       289.676326562       289.188525075       288.637129158       288.095419218       287.689316599       287.558506863       287.703602433
    0.0111720475967       289.617125408       290.020346466       290.119215534       289.923423356        289.49224322       288.919891383       288.330789847       287.845184182       287.616347705       287.669181378
    0.0112012901329       289.614632816       290.092147992       290.254980772       290.133502466       289.765336027       289.195463398        288.58577733       288.036281501         287.7029822       287.659521991
     0.011230485005       289.616186441       290.161139617       290.374948975       290.315556614        289.98799887       289.443401142       288.825119997       288.228029057       287.803598539       287.666526267
    0.0112596276147        289.69250742       290.215499008       290.500079346       290.497404135       290.203992756       289.693639378       289.045666078       288.410076688       287.911904342       287.684664129
    0.0112887080972       289.691479713       290.214357312       290.593158428       290.652709228       290.406387102       289.949754219       289.275994756       288.612124156       288.037583801       287.717509375
    0.0113177906605       289.615002711       290.209465671       290.640581162       290.762566405       290.580993354       290.162352325       289.499162374       288.824615436       288.188268384        287.76595498
    0.0113469208868       289.614623873       290.233874818       290.654085496        290.84385816       290.732404782       290.363943964       289.719225053       289.025740957       288.342701107       287.828457807
    0.0113760805587       289.580471379       290.191407322       290.651448718       290.906411487       290.855985403       290.530964411       289.931322457       289.231115167       288.508797803       287.908851989
    0.0114052977669       289.484515887       290.094540873       290.585058015       290.903228111       290.945628487       290.679004237       290.122698653       289.419042895        288.68887096       288.016918072
    0.0114344891293       289.442085804       290.001334543       290.500980803       290.871542677       290.975233693       290.782133869       290.290765328       289.603274655       288.864414069       288.137601451
    0.0114637009964       289.359947473       289.881959938       290.407256264       290.838059216       290.986289066       290.856102111       290.431715307         289.7725348       289.034558723        288.27914148
    0.0114929150737       289.241388958       289.736625504       290.245099443       290.724056091       290.966011827       290.913348673       290.544945611       289.923172054       289.191480473       288.427360461
    0.0115220432675       289.130150347       289.580682452       290.066075159       290.574743789       290.891219342       290.916103087       290.620085724       290.058080957       289.336183905       288.570806896
    0.0115511905429       289.092596551       289.459741633       289.910086417       290.430758983       290.780235099       290.878386476       290.659566732       290.167924477        289.48312611       288.724284821
    0.0115803828335       288.974073677       289.288952815       289.741126375       290.244503184       290.638769951       290.816726091       290.676395307       290.261379555       289.629190773       288.888203583
    0.0116094919988       288.890172734       289.088693112        289.50905398       290.017937131       290.459864915       290.702130144       290.660249706       290.335598494       289.767772747       289.050068238
    0.0116385162459        288.82199719       288.949190287       289.296255706       289.779832051       290.244498271       290.560037301       290.615472639       290.374307713       289.879249896       289.204292979
    0.0116674688737       288.691681008       288.796269998       289.091330969        289.57417191       290.030883803       290.389136044       290.538015471       290.393233452       289.975816699       289.349605248
    0.0116963595106       288.557817218       288.579717717       288.834667373       289.301206731       289.780032351       290.194904367       290.424212976       290.369257918       290.056960847       289.491670181
    0.0117252023828       288.473591193       288.448121986       288.628508756       289.037642858       289.509084581       289.970921484       290.273971145       290.318766992       290.114265829       289.619679692
    0.0117540003013       288.419955376       288.272469535       288.419637986       288.792802949       289.255576618       289.750460305       290.109286949       290.247064478       290.149818656       289.730179458
    0.0117827617217       288.367697548       288.131731465       288.211518795        288.52812693       288.985154503       289.501745938       289.929622468       290.161005844       290.152563797       289.824912951
    0.0118115027089       288.309358659       288.006359668       288.023682398       288.265731585       288.708557347       289.231527922       289.725242585       290.035929328       290.121309635       289.904276266
    0.0118402322194        288.22248153        287.91402199       287.860801245       288.041594026       288.464304011       288.960885895       289.504971361       289.897381003       290.068661259       289.965592747
    0.0118689695901       288.126072874       287.775591337       287.667360019       287.839283669       288.224353312       288.701899139       289.276665349         289.7465095       290.009886668        290.01505301
    0.0118977263652       288.113949945       287.716660754       287.524649611       287.622630179       287.967694332       288.441710058       289.030190428       289.579373233       289.926520184       290.040596973
     0.011926505042       288.133106036       287.687075673       287.439458827       287.457281316       287.735452193       288.190797107       288.781756263        289.39198173       289.819161707       290.026157256
    0.0119553178288       288.129608994       287.626237255        287.33994549       287.313725169       287.524533276       287.969940192       288.552284647       289.201512539       289.692377391       289.995406395
    0.0119841843875       288.188712946       287.611845172        287.28563609        287.19270638       287.332979647       287.748449788       288.322955821        288.99045917       289.550448705       289.951518051
    0.0120131087265       288.166928344       287.609031959       287.260821631       287.106229583       287.197370274       287.552778091        288.10821551       288.779756985       289.393975916       289.867612829
    0.0120420271255       288.210334059       287.653492045       287.248257843       287.032814009       287.088739866       287.379525119       287.917845217       288.586873272       289.238141083       289.773559361
    0.0120707658704       288.254716095       287.701104785       287.272265974       286.999787493       286.994448717       287.218774437       287.744956589       288.398871348       289.078819616       289.670564132
    0.0120995914581        288.28363307       287.806867057       287.303173488       287.005232546       286.960804992       287.119760693        287.58530692       288.207121216       288.914451859       289.538652677
    0.0121284554046       288.341647443       287.863052608       287.364583509       287.026950091       286.919851296       287.045052039       287.450972925       288.046367619       288.744528433       289.400947199
    0.0121573921225        288.43390772       287.978762407       287.486596299       287.115072296       286.933666387       286.985470102       287.319524876       287.890292351        288.57978988       289.261046404
    0.0121864291915       288.499155522       288.089920464       287.612822046       287.218501204       286.982402696       286.995536003       287.241821216       287.748553666       288.419976256       289.115556909
    0.0122154523189        288.60267405       288.239735528       287.762302244       287.354200232       287.048918069       287.014162732       287.195071568       287.648499141       288.282083806       288.971699876
    0.0122444543781        288.68111477       288.367664559       287.921318123        287.49171315       287.157845884         287.0607301        287.16852499       287.549819663       288.148927457       288.834204332
    0.0122735786493       288.820157093       288.537983996       288.103711646        287.64190421       287.290408463       287.130925444       287.181626906       287.476780322       288.014841127       288.684927817
    0.0123026725635       288.908515994       288.655999885       288.294780649        287.83446038       287.455924867       287.224877455       287.219228557       287.435191559       287.914093026       288.558201815
    0.0123315022856       288.971895911       288.820445055       288.503835517       288.036291474       287.631216299       287.348701918        287.27918517       287.407486999       287.826376123       288.441318576
    0.0123605090825       289.057741695       288.957785108       288.688965057       288.263217319       287.824683481       287.493721787       287.363185825       287.412938668       287.752018598       288.308847377
    0.0123895345541       289.120104228       289.113400479       288.904232344        288.49693773        288.03925336       287.674484034       287.469176893       287.447281542       287.703365888       288.205113921
    0.0124186134778       289.206802929       289.277798823       289.082983409       288.730145426        288.27140029       287.867555896       287.586485742       287.497840468       287.672517379       288.112427105
    0.0124477961552       289.333961609        289.47348821       289.312985315       288.983416512       288.507778231        288.08087667       287.727669992        287.56996959       287.648043495       288.013014732
    0.0124770586785       289.387448413       289.582916618       289.519229612       289.235810686       288.771185418        288.31406854       287.900180875       287.669894006       287.652058101       287.933314114
    0.0125063006147       289.465575094       289.698442207        289.70231845       289.462106491       289.020190346       288.551374819        288.09373426       287.790862136       287.690872041       287.873462047
    0.0125355271815       289.493864451       289.790936618       289.867575618       289.671941139       289.261666355       288.782522322       288.283527356       287.923949565        287.75153809       287.823585832
     0.012564779617       289.524405528       289.889564077       290.032072126       289.874229079       289.499441415       289.015988464       288.484051558       288.063558757       287.821112482       287.798063643
    0.0125940132992       289.546459885       289.979046767       290.165058362       290.059477154       289.723247864       289.245303987        288.68723372       288.218235361       287.911537791       287.791716753
    0.0126232963962       289.553505452        290.00628227       290.265223905       290.226705527       289.933228992       289.452942589       288.890370875       288.377572246       288.004833973        287.80199718
    0.0126525776963       289.589244218       290.037337486       290.349422573       290.369322417       290.131187751       289.672738068       289.105557015       288.537994377       288.097058257       287.821481042
     0.012681821113       289.586016371       290.067558861       290.423200044       290.492640317       290.311732081       289.879880952       289.325089037       288.719793596       288.212589096       287.865324808
    0.0127110032462       289.543221919       290.078879448       290.437285406       290.561147243       290.445726643       290.053447514       289.525932528       288.905591834       288.341939997       287.930736215
     0.012740199696       289.518966061       290.031479925       290.432637236       290.630547404       290.559397293        290.21484852       289.713950889       289.089838695       288.473201952       288.002360493
    0.0127693344354       289.455974558       289.981891861       290.388976585       290.627894579       290.643146402       290.377458087       289.894144032       289.278248434       288.617039971       288.094265395
    0.0127985291852       289.363466859       289.894729411       290.352814026       290.634817283       290.691171108       290.491318587       290.043964188       289.450101883       288.771948613        288.19975779
    0.0128276324551       289.303187545        289.81330433       290.288305199       290.596058202       290.720477808       290.595288298       290.171412688       289.599157821       288.916826389       288.305614425
    0.0128566617224       289.293218537        289.70440655       290.164185008       290.536169539       290.705432209       290.647023053       290.293290894       289.737635919       289.059412585       288.428388008
    0.0128857628339       289.197433448       289.553988461        290.04272806       290.439654287       290.647590359       290.660577144       290.374182629       289.851620896       289.205795508       288.563251725
    0.0129148646793       289.113495655       289.449061809       289.901656325       290.323077031       290.575449788       290.629667945       290.426026676       289.950705248       289.330623087       288.687460749
     0.012944044837       289.038945363       289.285275971       289.744239379       290.184875971       290.473209673       290.582123613       290.456524041        290.03336619       289.454487203       288.811842422
    0.0129731809589       288.970312224       289.177992783       289.565823429       290.001687124       290.339971818       290.511782282       290.462807798       290.115069935       289.589113647       288.951476217
    0.0130022580027       288.892717839       289.017707714       289.350868111        289.79685551       290.173532154       290.394258918        290.41836209       290.172688248       289.717330818       289.093032866
    0.0130312857859       288.751344722       288.828856394       289.137998036       289.574331462        289.98067929       290.253088205       290.352293296       290.203336659       289.810300255       289.231164954
    0.0130602563427       288.664726213       288.705801927       288.936685966       289.370594568       289.778800409       290.092897036       290.273563057       290.212153903       289.884411715        289.36210412
    0.0130891829761       288.534117695       288.582244114       288.758436851       289.145340456       289.563301407       289.920682001       290.167329547       290.190701448       289.939258876       289.483288151
    0.0131180716996       288.459951382       288.441518862       288.569472175       288.914117708       289.326516954       289.709061567       290.032802718       290.135058951       289.971120181       289.592091328
    0.0131469350953       288.381782826       288.292661525       288.398134345       288.689635554       289.088857426        289.50326739       289.875158706       290.043758684       289.991179394       289.679712616
    0.0131757843444       288.344237796       288.205325189       288.241077521       288.473969365       288.855207116       289.288024299       289.703776189       289.956210002       289.987862369       289.748252423
    0.0132046372663       288.288251763       288.078150606       288.061735561       288.270857339       288.616747214       289.065980511       289.512003436       289.842655643       289.961967794       289.806665289
    0.0132335227719       288.278763285       287.978972832       287.906451147       288.059098834       288.375659392       288.841578782       289.310332176       289.706787507       289.905273583       289.849930539
    0.0132624282258       288.298903252       287.901091131       287.776513972       287.879514599       288.168929895       288.612874633       289.108271681       289.552524158       289.831148118        289.87372227
    0.0132913647689       288.260230094       287.837474361       287.668425123       287.715101121       287.974955584        288.40322295       288.922077077        289.38971152       289.742348008       289.877631602